 khoh6                                                   
GAUSSIAN             39 MOL ORBITALS    356 PRIMITIVES       19 NUCLEI
  K    1    (CENTRE  1)  -0.00218641  0.00403646 -0.00036472  CHARGE = 19.0
  H    2    (CENTRE  2)  -2.13553604 -1.68970240 -5.99448720  CHARGE =  1.0
  O    3    (CENTRE  3)  -1.42319999 -2.45126203 -4.54545843  CHARGE =  8.0
  H    4    (CENTRE  4)  -1.29592694 -4.19815133 -4.89082288  CHARGE =  1.0
  H    5    (CENTRE  5)   0.50128954 -5.81750490  2.98384544  CHARGE =  1.0
  O    6    (CENTRE  6)   1.53281167 -4.70645175  2.04115367  CHARGE =  8.0
  H    7    (CENTRE  7)   3.14324384 -5.46854807  1.92822552  CHARGE =  1.0
  H    8    (CENTRE  8)   2.15950722  1.71109032  5.98415606  CHARGE =  1.0
  O    9    (CENTRE  9)   1.44005068  2.47021410  4.53736284  CHARGE =  8.0
  H   10    (CENTRE 10)   1.31682542  4.21809361  4.87918217  CHARGE =  1.0
  H   11    (CENTRE 11)  -5.42692685 -0.27011178  3.69007200  CHARGE =  1.0
  O   12    (CENTRE 12)  -4.87918028 -0.80496853  2.07728523  CHARGE =  8.0
  H   13    (CENTRE 13)  -6.26885275 -1.61522830  1.30310034  CHARGE =  1.0
  H   14    (CENTRE 14)  -3.22461356  5.43386403 -1.88505851  CHARGE =  1.0
  O   15    (CENTRE 15)  -1.59903334  4.70764228 -2.01606000  CHARGE =  8.0
  H   16    (CENTRE 16)  -0.60214423  5.84295006 -2.96707601  CHARGE =  1.0
  H   17    (CENTRE 17)   6.25937200  1.64491211 -1.20082836  CHARGE =  1.0
  O   18    (CENTRE 18)   4.89492359  0.82672873 -2.01069884  CHARGE =  8.0
  H   19    (CENTRE 19)   5.48306683  0.30796678 -3.61446784  CHARGE =  1.0
CENTRE ASSIGNMENTS    1  1  1  1  1  1  1  1  1  1  1  1  1  1  1  1  1  1  1  1
CENTRE ASSIGNMENTS    1  1  1  1  1  1  1  1  1  1  1  1  1  1  1  1  1  1  1  1
CENTRE ASSIGNMENTS    1  1  1  1  1  1  1  1  1  1  1  1  1  1  1  1  1  1  1  1
CENTRE ASSIGNMENTS    1  1  1  1  1  1  1  1  1  1  1  1  1  1  1  1  1  1  1  1
CENTRE ASSIGNMENTS    2  2  2  2  2  2  2  3  3  3  3  3  3  3  3  3  3  3  3  3
CENTRE ASSIGNMENTS    3  3  3  3  3  3  3  3  3  3  3  3  3  3  3  3  3  3  3  4
CENTRE ASSIGNMENTS    4  4  4  4  4  4  5  5  5  5  5  5  5  6  6  6  6  6  6  6
CENTRE ASSIGNMENTS    6  6  6  6  6  6  6  6  6  6  6  6  6  6  6  6  6  6  6  6
CENTRE ASSIGNMENTS    6  6  6  6  6  7  7  7  7  7  7  7  8  8  8  8  8  8  8  9
CENTRE ASSIGNMENTS    9  9  9  9  9  9  9  9  9  9  9  9  9  9  9  9  9  9  9  9
CENTRE ASSIGNMENTS    9  9  9  9  9  9  9  9  9  9  9 10 10 10 10 10 10 10 11 11
CENTRE ASSIGNMENTS   11 11 11 11 11 12 12 12 12 12 12 12 12 12 12 12 12 12 12 12
CENTRE ASSIGNMENTS   12 12 12 12 12 12 12 12 12 12 12 12 12 12 12 12 12 13 13 13
CENTRE ASSIGNMENTS   13 13 13 13 14 14 14 14 14 14 14 15 15 15 15 15 15 15 15 15
CENTRE ASSIGNMENTS   15 15 15 15 15 15 15 15 15 15 15 15 15 15 15 15 15 15 15 15
CENTRE ASSIGNMENTS   15 15 15 16 16 16 16 16 16 16 17 17 17 17 17 17 17 18 18 18
CENTRE ASSIGNMENTS   18 18 18 18 18 18 18 18 18 18 18 18 18 18 18 18 18 18 18 18
CENTRE ASSIGNMENTS   18 18 18 18 18 18 18 18 18 19 19 19 19 19 19 19
TYPE ASSIGNMENTS      1  1  1  1  1  1  1  1  1  1  1  1  2  2  2  2  2  2  3  3
TYPE ASSIGNMENTS      3  3  3  3  4  4  4  4  4  4  1  1  1  1  1  1  2  2  2  2
TYPE ASSIGNMENTS      2  2  3  3  3  3  3  3  4  4  4  4  4  4  1  1  1  2  2  2
TYPE ASSIGNMENTS      3  3  3  4  4  4  1  2  3  4  1  2  3  4  5  6  7  8  9 10
TYPE ASSIGNMENTS      1  1  1  1  2  3  4  1  1  1  1  1  1  1  1  1  2  2  2  3
TYPE ASSIGNMENTS      3  3  4  4  4  1  2  3  4  1  2  3  4  5  6  7  8  9 10  1
TYPE ASSIGNMENTS      1  1  1  2  3  4  1  1  1  1  2  3  4  1  1  1  1  1  1  1
TYPE ASSIGNMENTS      1  1  2  2  2  3  3  3  4  4  4  1  2  3  4  1  2  3  4  5
TYPE ASSIGNMENTS      6  7  8  9 10  1  1  1  1  2  3  4  1  1  1  1  2  3  4  1
TYPE ASSIGNMENTS      1  1  1  1  1  1  1  1  2  2  2  3  3  3  4  4  4  1  2  3
TYPE ASSIGNMENTS      4  1  2  3  4  5  6  7  8  9 10  1  1  1  1  2  3  4  1  1
TYPE ASSIGNMENTS      1  1  2  3  4  1  1  1  1  1  1  1  1  1  2  2  2  3  3  3
TYPE ASSIGNMENTS      4  4  4  1  2  3  4  1  2  3  4  5  6  7  8  9 10  1  1  1
TYPE ASSIGNMENTS      1  2  3  4  1  1  1  1  2  3  4  1  1  1  1  1  1  1  1  1
TYPE ASSIGNMENTS      2  2  2  3  3  3  4  4  4  1  2  3  4  1  2  3  4  5  6  7
TYPE ASSIGNMENTS      8  9 10  1  1  1  1  2  3  4  1  1  1  1  2  3  4  1  1  1
TYPE ASSIGNMENTS      1  1  1  1  1  1  2  2  2  3  3  3  4  4  4  1  2  3  4  1
TYPE ASSIGNMENTS      2  3  4  5  6  7  8  9 10  1  1  1  1  2  3  4
EXPONENTS  0.3159442D+05 0.4744330D+04 0.1080419D+04 0.3042338D+03 0.9724586D+02
EXPONENTS  0.3302495D+02 0.6227625D+03 0.1478839D+03 0.4732735D+02 0.1751495D+02
EXPONENTS  0.6922722D+01 0.2768277D+01 0.6227625D+03 0.1478839D+03 0.4732735D+02
EXPONENTS  0.1751495D+02 0.6922722D+01 0.2768277D+01 0.6227625D+03 0.1478839D+03
EXPONENTS  0.4732735D+02 0.1751495D+02 0.6922722D+01 0.2768277D+01 0.6227625D+03
EXPONENTS  0.1478839D+03 0.4732735D+02 0.1751495D+02 0.6922722D+01 0.2768277D+01
EXPONENTS  0.1184802D+02 0.4079211D+01 0.1763481D+01 0.7889270D+00 0.3503870D+00
EXPONENTS  0.1463440D+00 0.1184802D+02 0.4079211D+01 0.1763481D+01 0.7889270D+00
EXPONENTS  0.3503870D+00 0.1463440D+00 0.1184802D+02 0.4079211D+01 0.1763481D+01
EXPONENTS  0.7889270D+00 0.3503870D+00 0.1463440D+00 0.1184802D+02 0.4079211D+01
EXPONENTS  0.1763481D+01 0.7889270D+00 0.3503870D+00 0.1463440D+00 0.7168010D+00
EXPONENTS  0.2337410D+00 0.3867500D-01 0.7168010D+00 0.2337410D+00 0.3867500D-01
EXPONENTS  0.7168010D+00 0.2337410D+00 0.3867500D-01 0.7168010D+00 0.2337410D+00
EXPONENTS  0.3867500D-01 0.1652100D-01 0.1652100D-01 0.1652100D-01 0.1652100D-01
EXPONENTS  0.4700000D-02 0.4700000D-02 0.4700000D-02 0.4700000D-02 0.2350000D+00
EXPONENTS  0.2350000D+00 0.2350000D+00 0.2350000D+00 0.2350000D+00 0.2350000D+00
EXPONENTS  0.1873114D+02 0.2825394D+01 0.6401217D+00 0.1612778D+00 0.1100000D+01
EXPONENTS  0.1100000D+01 0.1100000D+01 0.5484672D+04 0.8252349D+03 0.1880470D+03
EXPONENTS  0.5296450D+02 0.1689757D+02 0.5799635D+01 0.1553962D+02 0.3599934D+01
EXPONENTS  0.1013762D+01 0.1553962D+02 0.3599934D+01 0.1013762D+01 0.1553962D+02
EXPONENTS  0.3599934D+01 0.1013762D+01 0.1553962D+02 0.3599934D+01 0.1013762D+01
EXPONENTS  0.2700058D+00 0.2700058D+00 0.2700058D+00 0.2700058D+00 0.8450000D-01
EXPONENTS  0.8450000D-01 0.8450000D-01 0.8450000D-01 0.8000000D+00 0.8000000D+00
EXPONENTS  0.8000000D+00 0.8000000D+00 0.8000000D+00 0.8000000D+00 0.1873114D+02
EXPONENTS  0.2825394D+01 0.6401217D+00 0.1612778D+00 0.1100000D+01 0.1100000D+01
EXPONENTS  0.1100000D+01 0.1873114D+02 0.2825394D+01 0.6401217D+00 0.1612778D+00
EXPONENTS  0.1100000D+01 0.1100000D+01 0.1100000D+01 0.5484672D+04 0.8252349D+03
EXPONENTS  0.1880470D+03 0.5296450D+02 0.1689757D+02 0.5799635D+01 0.1553962D+02
EXPONENTS  0.3599934D+01 0.1013762D+01 0.1553962D+02 0.3599934D+01 0.1013762D+01
EXPONENTS  0.1553962D+02 0.3599934D+01 0.1013762D+01 0.1553962D+02 0.3599934D+01
EXPONENTS  0.1013762D+01 0.2700058D+00 0.2700058D+00 0.2700058D+00 0.2700058D+00
EXPONENTS  0.8450000D-01 0.8450000D-01 0.8450000D-01 0.8450000D-01 0.8000000D+00
EXPONENTS  0.8000000D+00 0.8000000D+00 0.8000000D+00 0.8000000D+00 0.8000000D+00
EXPONENTS  0.1873114D+02 0.2825394D+01 0.6401217D+00 0.1612778D+00 0.1100000D+01
EXPONENTS  0.1100000D+01 0.1100000D+01 0.1873114D+02 0.2825394D+01 0.6401217D+00
EXPONENTS  0.1612778D+00 0.1100000D+01 0.1100000D+01 0.1100000D+01 0.5484672D+04
EXPONENTS  0.8252349D+03 0.1880470D+03 0.5296450D+02 0.1689757D+02 0.5799635D+01
EXPONENTS  0.1553962D+02 0.3599934D+01 0.1013762D+01 0.1553962D+02 0.3599934D+01
EXPONENTS  0.1013762D+01 0.1553962D+02 0.3599934D+01 0.1013762D+01 0.1553962D+02
EXPONENTS  0.3599934D+01 0.1013762D+01 0.2700058D+00 0.2700058D+00 0.2700058D+00
EXPONENTS  0.2700058D+00 0.8450000D-01 0.8450000D-01 0.8450000D-01 0.8450000D-01
EXPONENTS  0.8000000D+00 0.8000000D+00 0.8000000D+00 0.8000000D+00 0.8000000D+00
EXPONENTS  0.8000000D+00 0.1873114D+02 0.2825394D+01 0.6401217D+00 0.1612778D+00
EXPONENTS  0.1100000D+01 0.1100000D+01 0.1100000D+01 0.1873114D+02 0.2825394D+01
EXPONENTS  0.6401217D+00 0.1612778D+00 0.1100000D+01 0.1100000D+01 0.1100000D+01
EXPONENTS  0.5484672D+04 0.8252349D+03 0.1880470D+03 0.5296450D+02 0.1689757D+02
EXPONENTS  0.5799635D+01 0.1553962D+02 0.3599934D+01 0.1013762D+01 0.1553962D+02
EXPONENTS  0.3599934D+01 0.1013762D+01 0.1553962D+02 0.3599934D+01 0.1013762D+01
EXPONENTS  0.1553962D+02 0.3599934D+01 0.1013762D+01 0.2700058D+00 0.2700058D+00
EXPONENTS  0.2700058D+00 0.2700058D+00 0.8450000D-01 0.8450000D-01 0.8450000D-01
EXPONENTS  0.8450000D-01 0.8000000D+00 0.8000000D+00 0.8000000D+00 0.8000000D+00
EXPONENTS  0.8000000D+00 0.8000000D+00 0.1873114D+02 0.2825394D+01 0.6401217D+00
EXPONENTS  0.1612778D+00 0.1100000D+01 0.1100000D+01 0.1100000D+01 0.1873114D+02
EXPONENTS  0.2825394D+01 0.6401217D+00 0.1612778D+00 0.1100000D+01 0.1100000D+01
EXPONENTS  0.1100000D+01 0.5484672D+04 0.8252349D+03 0.1880470D+03 0.5296450D+02
EXPONENTS  0.1689757D+02 0.5799635D+01 0.1553962D+02 0.3599934D+01 0.1013762D+01
EXPONENTS  0.1553962D+02 0.3599934D+01 0.1013762D+01 0.1553962D+02 0.3599934D+01
EXPONENTS  0.1013762D+01 0.1553962D+02 0.3599934D+01 0.1013762D+01 0.2700058D+00
EXPONENTS  0.2700058D+00 0.2700058D+00 0.2700058D+00 0.8450000D-01 0.8450000D-01
EXPONENTS  0.8450000D-01 0.8450000D-01 0.8000000D+00 0.8000000D+00 0.8000000D+00
EXPONENTS  0.8000000D+00 0.8000000D+00 0.8000000D+00 0.1873114D+02 0.2825394D+01
EXPONENTS  0.6401217D+00 0.1612778D+00 0.1100000D+01 0.1100000D+01 0.1100000D+01
EXPONENTS  0.1873114D+02 0.2825394D+01 0.6401217D+00 0.1612778D+00 0.1100000D+01
EXPONENTS  0.1100000D+01 0.1100000D+01 0.5484672D+04 0.8252349D+03 0.1880470D+03
EXPONENTS  0.5296450D+02 0.1689757D+02 0.5799635D+01 0.1553962D+02 0.3599934D+01
EXPONENTS  0.1013762D+01 0.1553962D+02 0.3599934D+01 0.1013762D+01 0.1553962D+02
EXPONENTS  0.3599934D+01 0.1013762D+01 0.1553962D+02 0.3599934D+01 0.1013762D+01
EXPONENTS  0.2700058D+00 0.2700058D+00 0.2700058D+00 0.2700058D+00 0.8450000D-01
EXPONENTS  0.8450000D-01 0.8450000D-01 0.8450000D-01 0.8000000D+00 0.8000000D+00
EXPONENTS  0.8000000D+00 0.8000000D+00 0.8000000D+00 0.8000000D+00 0.1873114D+02
EXPONENTS  0.2825394D+01 0.6401217D+00 0.1612778D+00 0.1100000D+01 0.1100000D+01
EXPONENTS  0.1100000D+01
MO    1     MO 0.0        OCC NO =    2.0000000  ORB. ENERGY = -133.540438
  0.30768373D+01  0.56818811D+01  0.92182940D+01  0.12261063D+02  0.10621414D+02
  0.33315073D+01 -0.27202146D-02 -0.12257472D-01 -0.19291515D-01  0.39958643D-02
  0.23044840D-01  0.81309135D-02  0.24946577D-05  0.31764480D-05  0.32856206D-05
  0.23791256D-05  0.10180485D-05  0.15682439D-06 -0.35196587D-06 -0.44815818D-06
 -0.46356111D-06 -0.33566569D-06 -0.14363427D-06 -0.22126014D-07  0.54422309D-06
  0.69295932D-06  0.71677593D-06  0.51901913D-06  0.22209280D-06  0.34212090D-07
  0.30839147D-03  0.22768752D-02 -0.17902763D-04 -0.17698397D-02 -0.88384071D-03
 -0.59004980D-04  0.81821734D-07  0.12191716D-07 -0.12432927D-06 -0.97014500D-07
 -0.32617770D-07 -0.30474164D-08 -0.65860940D-07 -0.98135031D-08  0.10007662D-06
  0.78090084D-07  0.26255090D-07  0.24529633D-08 -0.47418840D-06 -0.70655678D-07
  0.72053594D-06  0.56223632D-06  0.18903252D-06  0.17660949D-07  0.42142704D-03
  0.97163647D-03 -0.10282374D-02 -0.51315221D-06  0.16168956D-06 -0.42677715D-06
 -0.47448885D-07  0.14950709D-07 -0.39462170D-07 -0.15662501D-05  0.49351105D-06
 -0.13026150D-05  0.10872702D-03  0.91940959D-08  0.17881565D-07  0.11469200D-06
 -0.60814996D-05 -0.63234413D-09 -0.50959611D-09 -0.40252721D-08  0.12044228D-03
  0.11912636D-03  0.11900932D-03 -0.74161274D-06  0.16457769D-05  0.20464552D-06
 -0.46560873D-05 -0.78976053D-05 -0.89911445D-05 -0.35651928D-04 -0.22241954D-04
  0.18070549D-05 -0.57336520D-04  0.57344591D-04  0.10554466D-03  0.17079118D-03
  0.22450979D-03  0.19256074D-03  0.65839788D-04 -0.16088691D-03 -0.71787427D-04
  0.21198923D-03  0.15251389D-04  0.11750373D-04  0.51590468D-05  0.29295541D-04
  0.22570635D-04  0.99097243D-05  0.53340254D-04  0.41095790D-04  0.18043265D-04
 -0.38617472D-03 -0.11347086D-04 -0.20105041D-04 -0.37683277D-04  0.43183399D-03
  0.23970271D-04  0.43721258D-04  0.80147149D-04  0.21256545D-03  0.27013998D-03
  0.25263536D-03 -0.25757949D-04  0.40536299D-04 -0.78972367D-05 -0.50162716D-05
 -0.85085461D-05 -0.96866790D-05 -0.32258623D-04 -0.44804428D-05 -0.49240720D-04
 -0.32870931D-04 -0.57652884D-05 -0.97790202D-05 -0.11133069D-04 -0.23873567D-04
 -0.11761605D-04 -0.45377677D-04  0.27795562D-04  0.57281017D-04  0.10542765D-03
  0.17060184D-03  0.22426089D-03  0.19234726D-03  0.65766796D-04 -0.16065587D-03
 -0.71684337D-04  0.21168481D-03 -0.13834447D-04 -0.10658695D-04 -0.46797414D-05
  0.55255583D-04  0.42571448D-04  0.18691159D-04 -0.24538052D-04 -0.18905246D-04
 -0.83004214D-05 -0.38623234D-03  0.12725647D-04 -0.38193500D-04  0.16066922D-04
  0.43345576D-03 -0.22706097D-04  0.83989148D-04 -0.37100525D-04  0.26969168D-03
  0.24513140D-03  0.21938379D-03 -0.11635861D-04 -0.37648091D-04 -0.41318277D-04
 -0.39154349D-05 -0.66413186D-05 -0.75609065D-05 -0.42626789D-04  0.44423934D-04
 -0.46328251D-04  0.97741735D-05 -0.45997445D-05 -0.78020373D-05 -0.88823437D-05
 -0.34755563D-04  0.22575824D-04 -0.82687075D-06  0.55789640D-04  0.57412575D-04
  0.10566979D-03  0.17099366D-03  0.22477595D-03  0.19278903D-03  0.65917843D-04
 -0.16095617D-03 -0.71818329D-04  0.21208049D-03 -0.15319322D-04 -0.11802711D-04
 -0.51820260D-05 -0.29117269D-04 -0.22433286D-04 -0.98494210D-05 -0.51594070D-04
 -0.39750449D-04 -0.17452588D-04 -0.38777569D-03  0.11419059D-04  0.19227235D-04
  0.35921690D-04  0.43240271D-03 -0.24614072D-04 -0.45097347D-04 -0.79794711D-04
  0.21325831D-03  0.26959972D-03  0.25228551D-03 -0.24867139D-04  0.41457707D-04
 -0.78169621D-05 -0.52379216D-05 -0.88845064D-05 -0.10114696D-04 -0.27893115D-04
  0.54667053D-05  0.46863112D-04  0.31870729D-04 -0.57364226D-05 -0.97300585D-05
 -0.11077328D-04 -0.23736817D-04 -0.35486533D-04  0.48125813D-05  0.40942457D-04
  0.57371377D-04  0.10559396D-03  0.17087096D-03  0.22461466D-03  0.19265069D-03
  0.65870542D-04 -0.16080181D-03 -0.71749457D-04  0.21187711D-03  0.54598198D-04
  0.42064968D-04  0.18468787D-04  0.86158795D-05  0.66380706D-05  0.29144706D-05
 -0.27190003D-04 -0.20948432D-04 -0.91974898D-05 -0.38723309D-03 -0.38699141D-04
 -0.67335184D-05  0.16398372D-04  0.43020773D-03  0.84976579D-04  0.13410484D-04
 -0.39837968D-04  0.25362132D-03  0.21995185D-03  0.26125078D-03  0.36015057D-04
 -0.13178812D-05  0.50436144D-04 -0.41878499D-05 -0.71033861D-05 -0.80869540D-05
 -0.38423000D-04 -0.58843707D-04 -0.22583809D-04 -0.25743966D-05 -0.45412367D-05
 -0.77027970D-05 -0.87693622D-05 -0.35845052D-04 -0.42993263D-04  0.43068225D-04
 -0.92898774D-05  0.57423559D-04  0.10569000D-03  0.17102637D-03  0.22481896D-03
  0.19282591D-03  0.65930454D-04 -0.16102502D-03 -0.71849052D-04  0.21217121D-03
  0.16864608D-04  0.12993272D-04  0.57047461D-05 -0.54839026D-04 -0.42250513D-04
 -0.18550251D-04  0.23727903D-04  0.18281070D-04  0.80263744D-05 -0.38727304D-03
 -0.13183863D-04  0.37843110D-04 -0.16241517D-04  0.43071641D-03  0.26668403D-04
 -0.83304339D-04  0.36305205D-04  0.26958703D-03  0.24544236D-03  0.22072068D-03
 -0.95750509D-05 -0.37995334D-04 -0.43334891D-04 -0.53037935D-05 -0.89962377D-05
 -0.10241899D-04 -0.28336892D-04  0.10319226D-04  0.47944209D-04 -0.29512320D-04
 -0.44642283D-05 -0.75721762D-05 -0.86206550D-05 -0.38010348D-04  0.57582114D-04
  0.23022898D-04  0.53898999D-05  0.57360188D-04  0.10557337D-03  0.17083764D-03
  0.22457085D-03  0.19261312D-03  0.65857696D-04 -0.16095802D-03 -0.71819153D-04
  0.21208292D-03 -0.56431981D-04 -0.43477799D-04 -0.19089096D-04 -0.10050415D-04
 -0.77433026D-05 -0.33997269D-05  0.25072861D-04  0.19317287D-04  0.84813296D-05
 -0.38640387D-03  0.40337556D-04  0.71901800D-05 -0.16373460D-04  0.43418376D-03
 -0.85589184D-04 -0.14411346D-04  0.37289876D-04  0.25310453D-03  0.22001707D-03
  0.26239197D-03  0.34689536D-04 -0.25376799D-05  0.51371873D-04 -0.51232742D-05
 -0.86900427D-05 -0.98933065D-05 -0.30903819D-04  0.38726149D-04 -0.53705222D-05
 -0.43771634D-04
MO    2     MO 0.0        OCC NO =    2.0000000  ORB. ENERGY =  -20.699808
  0.87066178D-05  0.16078188D-04  0.26085280D-04  0.34695495D-04  0.30055729D-04
  0.94272651D-05  0.17421719D-06  0.78503446D-06  0.12355324D-05 -0.25591666D-06
 -0.14759156D-05 -0.52074746D-06  0.13681319D-03  0.17420425D-03  0.18019155D-03
  0.13047713D-03  0.55832296D-04  0.86006370D-05  0.23740871D-04  0.30229253D-04
  0.31268215D-04  0.22641388D-04  0.96884467D-05  0.14924483D-05 -0.56932613D-04
 -0.72492302D-04 -0.74983820D-04 -0.54295960D-04 -0.23233713D-04 -0.35790169D-05
 -0.44943278D-05 -0.33181928D-04  0.26090503D-06  0.25792672D-04  0.12880609D-04
  0.85990617D-06  0.93064159D-05  0.13866875D-05 -0.14141230D-04 -0.11034443D-04
 -0.37099500D-05 -0.34661359D-06  0.15381331D-05  0.22918705D-06 -0.23372149D-05
 -0.18237357D-05 -0.61316805D-06 -0.57287128D-07 -0.39020391D-05 -0.58141704D-06
  0.59292032D-05  0.46265748D-05  0.15555258D-05  0.14532982D-06 -0.39554474D-05
 -0.91196260D-05  0.96508733D-05 -0.25217890D-04  0.79459261D-05 -0.20973152D-04
 -0.45370657D-05  0.14295878D-05 -0.37733755D-05  0.10631213D-04 -0.33497979D-05
  0.88417411D-05  0.17127843D-05  0.17072347D-05  0.27565645D-06 -0.71257927D-06
 -0.26676112D-06 -0.55961848D-07 -0.88379232D-08  0.23002720D-07 -0.86206990D-05
  0.44545149D-05  0.19431687D-05 -0.48178871D-05  0.11049429D-04  0.11531330D-05
  0.70986759D-06  0.12040698D-05  0.13707909D-05 -0.12478518D-04 -0.93093595D-06
  0.36259327D-05 -0.80017745D-05 -0.19999617D-03 -0.36809972D-03 -0.59565482D-03
 -0.78300494D-03 -0.67157879D-03 -0.22962419D-03 -0.13165555D-05 -0.58744449D-06
  0.17347314D-05  0.91247639D-05  0.70301387D-05  0.30866096D-05  0.47879313D-05
  0.36888430D-05  0.16196008D-05  0.40497128D-05  0.31200854D-05  0.13698855D-05
 -0.49301174D-05 -0.34552076D-05 -0.47331557D-05 -0.76781805D-05  0.13190549D-04
  0.28909506D-05  0.79582189D-06 -0.51816925D-06  0.38818070D-05  0.72479220D-05
  0.55716280D-05 -0.15392489D-05  0.11826674D-05 -0.10495704D-05  0.68614472D-06
  0.11638313D-05  0.13249808D-05 -0.12968362D-04  0.28812590D-05 -0.83519233D-05
 -0.34063921D-05 -0.29002407D-05 -0.49193572D-05 -0.56005143D-05  0.10441564D-04
  0.69130983D-05 -0.42714812D-05 -0.20689838D-07 -0.23178864D-03 -0.42661483D-03
 -0.69034333D-03 -0.90747563D-03 -0.77833658D-03 -0.26612649D-03 -0.97658554D-06
 -0.43575056D-06  0.12867773D-05  0.90368725D-05  0.69624231D-05  0.30568787D-05
 -0.13283958D-05 -0.10234574D-05 -0.44935291D-06 -0.23454407D-05 -0.18070356D-05
 -0.79338597D-06 -0.15270655D-04 -0.83506374D-05  0.26006224D-05  0.13148292D-05
 -0.88352960D-05  0.22278728D-05  0.31339715D-05 -0.23647965D-05  0.81398881D-06
  0.27831224D-05  0.56022985D-05  0.12155900D-04 -0.45182527D-05 -0.22377700D-05
  0.16389104D-05  0.27799022D-05  0.31648204D-05  0.13753598D-04 -0.15190932D-04
  0.77171566D-05  0.72674944D-06  0.87765865D-06  0.14886752D-05  0.16948041D-05
 -0.14089916D-04  0.63589290D-05 -0.19072029D-05  0.56313337D-05 -0.10817955D-02
 -0.19910813D-02 -0.32219454D-02 -0.42353373D-02 -0.36326242D-02 -0.12420559D-02
  0.13389640D-04  0.59744313D-05 -0.17642576D-04  0.54720667D-05  0.42159324D-05
  0.18510214D-05 -0.38096587D-05 -0.29351367D-05 -0.12886831D-05 -0.13105215D-04
 -0.10096861D-04 -0.44330660D-05 -0.47837487D-05  0.13582021D-05  0.39610908D-05
  0.84486451D-05  0.14692720D-04  0.22714654D-05  0.25720203D-06 -0.14826666D-05
  0.77779658D-05  0.95163596D-05  0.78393365D-05 -0.95296428D-07  0.28052727D-05
 -0.13459571D-05  0.96683565D-06  0.16399363D-05  0.18670095D-05 -0.14025740D-04
  0.29426833D-05  0.76720507D-05  0.91279179D-06  0.28106912D-04  0.47674643D-04
  0.54275896D-04 -0.68468562D-04 -0.16051306D-03  0.15098076D-03  0.45989312D-03
  0.82719670D+00  0.15224835D+01  0.24636657D+01  0.32385575D+01  0.27776920D+01
  0.94974006D+00 -0.12944429D-01 -0.57757789D-02  0.17055953D-01 -0.40875552D-02
 -0.31492409D-02 -0.13826864D-02 -0.58022331D-03 -0.44703078D-03 -0.19627059D-03
  0.17678454D-02  0.13620296D-02  0.59800436D-03  0.15312467D-02  0.16030055D-03
  0.23312588D-04 -0.68937031D-04 -0.12915568D-03 -0.43846467D-04 -0.66454121D-05
  0.18651424D-04 -0.46679994D-02 -0.47116561D-02 -0.46532568D-02  0.44960459D-04
 -0.89822482D-06  0.72821388D-04  0.28498925D-04  0.48339571D-04  0.55032893D-04
 -0.69508705D-04 -0.39886782D-03 -0.23058005D-03 -0.21757168D-03 -0.24820643D-05
 -0.42100508D-05 -0.47929940D-05  0.90325726D-05  0.23571420D-05  0.57446440D-05
 -0.38677347D-05 -0.43126055D-03 -0.79374963D-03 -0.12844367D-02 -0.16884280D-02
 -0.14481549D-02 -0.49514876D-03  0.84023355D-06  0.37491057D-06 -0.11071159D-05
  0.65320302D-05  0.50325771D-05  0.22095724D-05  0.87426491D-06  0.67357398D-06
  0.29573526D-06 -0.24471208D-05 -0.18853746D-05 -0.82778101D-06 -0.17429175D-04
 -0.53673482D-05 -0.31957634D-05  0.34578448D-05 -0.55707741D-05  0.42088852D-05
 -0.20272175D-05 -0.21566466D-06  0.11261071D-04  0.38117435D-05  0.57419488D-05
 -0.71749701D-05  0.17062247D-05  0.67701738D-05  0.12623107D-05  0.21411178D-05
  0.24375870D-05  0.11644856D-04 -0.73890693D-05 -0.99162380D-05  0.78393278D-05
  0.15453219D-05  0.26211585D-05  0.29840963D-05 -0.56761919D-05  0.15495920D-05
 -0.29861040D-06 -0.19814668D-05 -0.12858418D-04 -0.23666353D-04 -0.38296627D-04
 -0.50341988D-04 -0.43178031D-04 -0.14763302D-04 -0.19793928D-04 -0.88320120D-05
  0.26081050D-04  0.32470316D-05  0.25016628D-05  0.10983647D-05  0.52452712D-06
  0.40411987D-06  0.17743039D-06 -0.13689368D-05 -0.10546920D-05 -0.46306660D-06
 -0.48834822D-04  0.16405221D-05  0.23345947D-06 -0.77843976D-06  0.58140778D-04
 -0.84194292D-05 -0.14160314D-05  0.33494819D-05  0.24641786D-04  0.20122363D-04
  0.20533395D-04  0.12441943D-05 -0.41878346D-05 -0.11205771D-05  0.15711699D-05
  0.26650015D-05  0.30340100D-05 -0.62241288D-05  0.25667226D-05  0.94251324D-06
  0.44029398D-07
MO    3     MO 0.0        OCC NO =    2.0000000  ORB. ENERGY =  -20.699770
  0.86855076D-05  0.16039204D-04  0.26022033D-04  0.34611371D-04  0.29982855D-04
  0.94044076D-05  0.19368533D-06  0.87275924D-06  0.13735987D-05 -0.28451442D-06
 -0.16408439D-05 -0.57893911D-06 -0.39749356D-04 -0.50612860D-04 -0.52352394D-04
 -0.37908492D-04 -0.16221373D-04 -0.24988071D-05 -0.68526759D-04 -0.87255129D-04
 -0.90254038D-04 -0.65353160D-04 -0.27965185D-04 -0.43078724D-05 -0.12725716D-03
 -0.16203656D-03 -0.16760566D-03 -0.12136365D-03 -0.51932561D-04 -0.79999056D-05
 -0.44692770D-05 -0.32996975D-04  0.25945077D-06  0.25648906D-04  0.12808814D-04
  0.85511315D-06 -0.28173750D-05 -0.41979841D-06  0.42810408D-05  0.33405088D-05
  0.11231306D-05  0.10493196D-06 -0.47126223D-05 -0.70219669D-06  0.71608958D-05
  0.55876682D-05  0.18786602D-05  0.17551966D-06 -0.86180996D-05 -0.12841260D-05
  0.13095323D-04  0.10218320D-04  0.34355566D-05  0.32097753D-06 -0.38518622D-05
 -0.88808011D-05  0.93981362D-05  0.70194258D-05 -0.22117567D-05  0.58378986D-05
  0.12574675D-04 -0.39621649D-05  0.10458075D-04  0.23629534D-04 -0.74454496D-05
  0.19652152D-04  0.17479281D-05 -0.49739816D-06 -0.85558861D-06 -0.15846420D-05
 -0.26925176D-06  0.16434593D-07  0.27930190D-07  0.51768003D-07  0.38118326D-05
  0.82258973D-06 -0.68733816D-05 -0.35905659D-05 -0.76353376D-05 -0.12070773D-04
  0.15864149D-05  0.26908599D-05  0.30634489D-05 -0.61263478D-05 -0.21843750D-06
 -0.21791350D-05 -0.15174790D-05 -0.21151748D-04 -0.38930508D-04 -0.62996911D-04
 -0.82811203D-04 -0.71026687D-04 -0.24285231D-04 -0.19709389D-04 -0.87942911D-05
  0.25969659D-04 -0.90308436D-06 -0.69577781D-06 -0.30548394D-06 -0.15130154D-05
 -0.11656968D-05 -0.51180368D-06 -0.30269989D-05 -0.23321395D-05 -0.10239349D-05
 -0.48952631D-04 -0.49762096D-06 -0.86841028D-06 -0.15593814D-05  0.58159501D-04
  0.24519361D-05  0.43096591D-05  0.77529878D-05  0.20584838D-04  0.20896781D-04
  0.24090528D-04  0.16324528D-05  0.23502712D-05  0.47169926D-05  0.15319318D-05
  0.25984462D-05  0.29582392D-05 -0.57728255D-05 -0.96022090D-06  0.12004206D-06
 -0.24669087D-05  0.80342664D-06  0.13627637D-05  0.15514583D-05 -0.13657109D-04
 -0.52390556D-05 -0.74909220D-05  0.20878650D-05 -0.32226143D-03 -0.59313306D-03
 -0.95980126D-03 -0.12616856D-02 -0.10821404D-02 -0.37000219D-03  0.94937834D-06
  0.42361076D-06 -0.12509283D-05 -0.46174539D-05 -0.35574993D-05 -0.15619338D-05
  0.33174984D-05  0.25559537D-05  0.11222013D-05 -0.10115304D-04 -0.77932967D-05
 -0.34216770D-05 -0.44706745D-05  0.27488963D-05 -0.78263526D-05  0.46851010D-05
  0.13829989D-04 -0.93876863D-06 -0.72186610D-06 -0.26266110D-05  0.65030205D-05
  0.54673297D-05  0.41178900D-05  0.39913827D-06 -0.28137582D-05 -0.99830174D-06
  0.79716993D-06  0.13521511D-05  0.15393762D-05 -0.12982266D-04  0.63324062D-05
 -0.52644926D-05 -0.26586110D-05  0.28354806D-04  0.48095118D-04  0.54754592D-04
 -0.69151755D-04  0.20554590D-03 -0.21290327D-03  0.41502058D-03  0.82719656D+00
  0.15224833D+01  0.24636653D+01  0.32385570D+01  0.27776915D+01  0.94973990D+00
 -0.12944516D-01 -0.57758178D-02  0.17056067D-01  0.12588921D-02  0.96990849D-03
  0.42584207D-03  0.20858793D-02  0.16070575D-02  0.70558481D-03  0.37730534D-02
  0.29069342D-02  0.12763007D-02  0.15310235D-02 -0.49159870D-04 -0.81624420D-04
 -0.14804390D-03 -0.12886838D-03  0.13381388D-04  0.22226681D-04  0.40465513D-04
 -0.47209766D-02 -0.46416198D-02 -0.46699849D-02 -0.34366508D-04  0.56422156D-04
 -0.13743833D-04  0.28263407D-04  0.47940088D-04  0.54578095D-04 -0.68903109D-04
 -0.33517000D-04  0.49843602D-03  0.10159264D-03 -0.27899814D-05 -0.47323364D-05
 -0.53875978D-05  0.10303534D-04 -0.69561627D-05 -0.32812736D-05 -0.16722875D-05
  0.10831655D-02  0.19936028D-02  0.32260256D-02  0.42407009D-02  0.36372246D-02
  0.12436288D-02 -0.21807814D-04 -0.97306041D-05  0.28734604D-04 -0.10950422D-04
 -0.84367097D-05 -0.37041700D-05 -0.53707364D-05 -0.41378629D-05 -0.18167447D-05
 -0.33873516D-05 -0.26097718D-05 -0.11458304D-05 -0.13144959D-04  0.58277394D-05
  0.40611124D-05  0.46927476D-05 -0.88797324D-05  0.16854542D-05 -0.11449511D-05
 -0.40374275D-05 -0.91583802D-05 -0.34676957D-05  0.13135364D-05 -0.65700677D-05
 -0.55157990D-05  0.16890233D-05  0.15803507D-05  0.26805739D-05  0.30517386D-05
  0.13218392D-04  0.12490751D-04  0.69627788D-05  0.63004524D-05  0.83795731D-06
  0.14213342D-05  0.16181387D-05 -0.13481706D-04 -0.79809574D-05  0.25754451D-05
 -0.25937274D-05 -0.64273108D-03 -0.11829683D-02 -0.19142660D-02 -0.25163563D-02
 -0.21582641D-02 -0.73794716D-03  0.62238910D-05  0.27770880D-05 -0.82007781D-05
  0.37326785D-06  0.28758276D-06  0.12626432D-06 -0.12280562D-04 -0.94615111D-05
 -0.41541130D-05 -0.40628271D-05 -0.31301892D-05 -0.13743217D-05 -0.45740840D-05
 -0.24637485D-05  0.87912645D-05 -0.24603357D-05  0.14398116D-04 -0.35722123D-06
 -0.17457825D-05 -0.21958838D-05  0.79026749D-05  0.54504052D-05  0.61253125D-05
 -0.24015204D-06 -0.13323247D-05 -0.22791227D-05  0.92250717D-06  0.15647468D-05
  0.17814089D-05 -0.14013600D-04  0.29249693D-05  0.41615597D-05 -0.70942969D-05
 -0.25191778D-05 -0.42730024D-05 -0.48646622D-05  0.88179549D-05  0.42667430D-05
 -0.11574764D-05 -0.61243574D-05 -0.18913332D-03 -0.34810627D-03 -0.56330166D-03
 -0.74047580D-03 -0.63510179D-03 -0.21715209D-03 -0.28184162D-05 -0.12575718D-05
  0.37136264D-05 -0.62293991D-06 -0.47994162D-06 -0.21072022D-06 -0.29861979D-05
 -0.23007045D-05 -0.10101332D-05 -0.69650797D-05 -0.53662184D-05 -0.23560589D-05
 -0.16956799D-04 -0.75228683D-06  0.28211578D-05  0.70088914D-05 -0.54132443D-05
 -0.36970935D-05 -0.20221393D-05 -0.17853860D-05  0.62942504D-05  0.68775117D-05
  0.21591344D-05  0.50557466D-05  0.10877586D-04 -0.76294543D-07  0.13667513D-05
  0.23182689D-05  0.26392672D-05  0.12154630D-04 -0.58329269D-05  0.40082176D-05
  0.13385166D-04
MO    4     MO 0.0        OCC NO =    2.0000000  ORB. ENERGY =  -20.699706
  0.87614654D-05  0.16179473D-04  0.26249605D-04  0.34914060D-04  0.30245066D-04
  0.94866524D-05  0.15328687D-06  0.69072103D-06  0.10870965D-05 -0.22517103D-06
 -0.12986002D-05 -0.45818526D-06  0.44513675D-04  0.56679268D-04  0.58627301D-04
  0.42452166D-04  0.18165651D-04  0.27983117D-05 -0.13145641D-03 -0.16738346D-03
 -0.17313633D-03 -0.12536842D-03 -0.53646238D-04 -0.82638875D-05  0.56007844D-04
  0.71314794D-04  0.73765842D-04  0.53414019D-04  0.22856323D-04  0.35208822D-05
 -0.45394380D-05 -0.33514979D-04  0.26352377D-06  0.26051556D-04  0.13009893D-04
  0.86853717D-06  0.30844072D-05  0.45958712D-06 -0.46868000D-05 -0.36571239D-05
 -0.12295814D-05 -0.11487746D-06 -0.88968845D-05 -0.13256659D-05  0.13518941D-04
  0.10548870D-04  0.35466926D-05  0.33136076D-06  0.38099080D-05  0.56768919D-06
 -0.57892087D-05 -0.45173367D-05 -0.15187982D-05 -0.14189844D-06 -0.40398727D-05
 -0.93142757D-05  0.98568621D-05 -0.80776230D-05  0.25451850D-05 -0.67179774D-05
  0.24516744D-04 -0.77250013D-05  0.20390025D-04 -0.10377934D-04  0.32699920D-05
 -0.86310946D-05  0.16396924D-05  0.55024415D-06 -0.16483380D-05  0.71126552D-06
 -0.26237596D-06 -0.18072274D-07  0.53851276D-07 -0.23369902D-07  0.28239515D-05
 -0.76008940D-05  0.26174083D-05  0.83018657D-05 -0.28963895D-05  0.11005650D-04
 -0.25323056D-05 -0.42952696D-05 -0.48900127D-05  0.90430514D-05 -0.13732784D-06
 -0.66825627D-05 -0.32669221D-05 -0.35320679D-03 -0.65008904D-03 -0.10519668D-02
 -0.13828398D-02 -0.11860536D-02 -0.40553188D-03 -0.15077739D-06 -0.67276577D-07
  0.19866863D-06  0.22346162D-05  0.17216513D-05  0.75589766D-06 -0.65252881D-05
 -0.50273827D-05 -0.22072918D-05  0.23721780D-05  0.18276353D-05  0.80243033D-06
 -0.16887999D-04 -0.12766993D-05  0.72495785D-05 -0.35600998D-06 -0.60305290D-05
  0.17956807D-05 -0.17775033D-05  0.38635364D-05  0.77790638D-05  0.17134004D-05
  0.86130436D-05 -0.26642849D-05  0.27186458D-05 -0.97588146D-05  0.13116862D-05
  0.22248680D-05  0.25329336D-05  0.11940387D-04 -0.64427968D-06  0.14455145D-04
  0.37533101D-05  0.14293312D-05  0.24244163D-05  0.27601123D-05 -0.49226571D-05