 benzene
GAUSSIAN             21 MOL ORBITALS    192 PRIMITIVES       12 NUCLEI
  C    1    (CENTRE  1)   1.57889864  2.10736010  0.04044262  CHARGE =  6.0
  H    2    (CENTRE  2)   2.80496581  3.74280779  0.03691447  CHARGE =  1.0
  C    3    (CENTRE  3)   2.61401085 -0.31397273  0.04490992  CHARGE =  6.0
  H    4    (CENTRE  4)   4.64333871 -0.55785600  0.04303110  CHARGE =  1.0
  C    5    (CENTRE  5)   1.03472834 -2.42133693  0.04097989  CHARGE =  6.0
  H    6    (CENTRE  6)   1.83858278 -4.30064730  0.03737600  CHARGE =  1.0
  C    7    (CENTRE  7)  -1.57890989 -2.10735000  0.04043839  CHARGE =  6.0
  H    8    (CENTRE  8)  -2.80498510 -3.74280366  0.03690653  CHARGE =  1.0
  C    9    (CENTRE  9)  -2.61402714  0.31398581  0.04489563  CHARGE =  6.0
  H   10    (CENTRE 10)  -4.64335224  0.55786427  0.04300462  CHARGE =  1.0
  C   11    (CENTRE 11)  -1.03474934  2.42135045  0.04096973  CHARGE =  6.0
  H   12    (CENTRE 12)  -1.83859551  4.30064909  0.03735748  CHARGE =  1.0
CENTRE ASSIGNMENTS    1  1  1  1  1  1  1  1  1  1  1  1  1  1  1  1  1  1  1  1
CENTRE ASSIGNMENTS    1  1  1  1  1  2  2  2  2  2  2  2  3  3  3  3  3  3  3  3
CENTRE ASSIGNMENTS    3  3  3  3  3  3  3  3  3  3  3  3  3  3  3  3  3  4  4  4
CENTRE ASSIGNMENTS    4  4  4  4  5  5  5  5  5  5  5  5  5  5  5  5  5  5  5  5
CENTRE ASSIGNMENTS    5  5  5  5  5  5  5  5  5  6  6  6  6  6  6  6  7  7  7  7
CENTRE ASSIGNMENTS    7  7  7  7  7  7  7  7  7  7  7  7  7  7  7  7  7  7  7  7
CENTRE ASSIGNMENTS    7  8  8  8  8  8  8  8  9  9  9  9  9  9  9  9  9  9  9  9
CENTRE ASSIGNMENTS    9  9  9  9  9  9  9  9  9  9  9  9  9 10 10 10 10 10 10 10
CENTRE ASSIGNMENTS   11 11 11 11 11 11 11 11 11 11 11 11 11 11 11 11 11 11 11 11
CENTRE ASSIGNMENTS   11 11 11 11 11 12 12 12 12 12 12 12
TYPE ASSIGNMENTS      1  1  1  1  1  1  1  2  2  2  3  3  3  4  4  4  2  3  4  5
TYPE ASSIGNMENTS      6  7  8  9 10  1  1  1  1  2  3  4  1  1  1  1  1  1  1  2
TYPE ASSIGNMENTS      2  2  3  3  3  4  4  4  2  3  4  5  6  7  8  9 10  1  1  1
TYPE ASSIGNMENTS      1  2  3  4  1  1  1  1  1  1  1  2  2  2  3  3  3  4  4  4
TYPE ASSIGNMENTS      2  3  4  5  6  7  8  9 10  1  1  1  1  2  3  4  1  1  1  1
TYPE ASSIGNMENTS      1  1  1  2  2  2  3  3  3  4  4  4  2  3  4  5  6  7  8  9
TYPE ASSIGNMENTS     10  1  1  1  1  2  3  4  1  1  1  1  1  1  1  2  2  2  3  3
TYPE ASSIGNMENTS      3  4  4  4  2  3  4  5  6  7  8  9 10  1  1  1  1  2  3  4
TYPE ASSIGNMENTS      1  1  1  1  1  1  1  2  2  2  3  3  3  4  4  4  2  3  4  5
TYPE ASSIGNMENTS      6  7  8  9 10  1  1  1  1  2  3  4
EXPONENTS  0.1238402D+04 0.1862900D+03 0.4225118D+02 0.1167656D+02 0.3593051D+01
EXPONENTS  0.4024515D+00 0.1309018D+00 0.9468097D+01 0.2010355D+01 0.5477100D+00
EXPONENTS  0.9468097D+01 0.2010355D+01 0.5477100D+00 0.9468097D+01 0.2010355D+01
EXPONENTS  0.5477100D+00 0.1526861D+00 0.1526861D+00 0.1526861D+00 0.8000000D+00
EXPONENTS  0.8000000D+00 0.8000000D+00 0.8000000D+00 0.8000000D+00 0.8000000D+00
EXPONENTS  0.1301070D+02 0.1962257D+01 0.4445380D+00 0.1219496D+00 0.8000000D+00
EXPONENTS  0.8000000D+00 0.8000000D+00 0.1238402D+04 0.1862900D+03 0.4225118D+02
EXPONENTS  0.1167656D+02 0.3593051D+01 0.4024515D+00 0.1309018D+00 0.9468097D+01
EXPONENTS  0.2010355D+01 0.5477100D+00 0.9468097D+01 0.2010355D+01 0.5477100D+00
EXPONENTS  0.9468097D+01 0.2010355D+01 0.5477100D+00 0.1526861D+00 0.1526861D+00
EXPONENTS  0.1526861D+00 0.8000000D+00 0.8000000D+00 0.8000000D+00 0.8000000D+00
EXPONENTS  0.8000000D+00 0.8000000D+00 0.1301070D+02 0.1962257D+01 0.4445380D+00
EXPONENTS  0.1219496D+00 0.8000000D+00 0.8000000D+00 0.8000000D+00 0.1238402D+04
EXPONENTS  0.1862900D+03 0.4225118D+02 0.1167656D+02 0.3593051D+01 0.4024515D+00
EXPONENTS  0.1309018D+00 0.9468097D+01 0.2010355D+01 0.5477100D+00 0.9468097D+01
EXPONENTS  0.2010355D+01 0.5477100D+00 0.9468097D+01 0.2010355D+01 0.5477100D+00
EXPONENTS  0.1526861D+00 0.1526861D+00 0.1526861D+00 0.8000000D+00 0.8000000D+00
EXPONENTS  0.8000000D+00 0.8000000D+00 0.8000000D+00 0.8000000D+00 0.1301070D+02
EXPONENTS  0.1962257D+01 0.4445380D+00 0.1219496D+00 0.8000000D+00 0.8000000D+00
EXPONENTS  0.8000000D+00 0.1238402D+04 0.1862900D+03 0.4225118D+02 0.1167656D+02
EXPONENTS  0.3593051D+01 0.4024515D+00 0.1309018D+00 0.9468097D+01 0.2010355D+01
EXPONENTS  0.5477100D+00 0.9468097D+01 0.2010355D+01 0.5477100D+00 0.9468097D+01
EXPONENTS  0.2010355D+01 0.5477100D+00 0.1526861D+00 0.1526861D+00 0.1526861D+00
EXPONENTS  0.8000000D+00 0.8000000D+00 0.8000000D+00 0.8000000D+00 0.8000000D+00
EXPONENTS  0.8000000D+00 0.1301070D+02 0.1962257D+01 0.4445380D+00 0.1219496D+00
EXPONENTS  0.8000000D+00 0.8000000D+00 0.8000000D+00 0.1238402D+04 0.1862900D+03
EXPONENTS  0.4225118D+02 0.1167656D+02 0.3593051D+01 0.4024515D+00 0.1309018D+00
EXPONENTS  0.9468097D+01 0.2010355D+01 0.5477100D+00 0.9468097D+01 0.2010355D+01
EXPONENTS  0.5477100D+00 0.9468097D+01 0.2010355D+01 0.5477100D+00 0.1526861D+00
EXPONENTS  0.1526861D+00 0.1526861D+00 0.8000000D+00 0.8000000D+00 0.8000000D+00
EXPONENTS  0.8000000D+00 0.8000000D+00 0.8000000D+00 0.1301070D+02 0.1962257D+01
EXPONENTS  0.4445380D+00 0.1219496D+00 0.8000000D+00 0.8000000D+00 0.8000000D+00
EXPONENTS  0.1238402D+04 0.1862900D+03 0.4225118D+02 0.1167656D+02 0.3593051D+01
EXPONENTS  0.4024515D+00 0.1309018D+00 0.9468097D+01 0.2010355D+01 0.5477100D+00
EXPONENTS  0.9468097D+01 0.2010355D+01 0.5477100D+00 0.9468097D+01 0.2010355D+01
EXPONENTS  0.5477100D+00 0.1526861D+00 0.1526861D+00 0.1526861D+00 0.8000000D+00
EXPONENTS  0.8000000D+00 0.8000000D+00 0.8000000D+00 0.8000000D+00 0.8000000D+00
EXPONENTS  0.1301070D+02 0.1962257D+01 0.4445380D+00 0.1219496D+00 0.8000000D+00
EXPONENTS  0.8000000D+00 0.8000000D+00
MO    1     MO 0.0        OCC NO =    2.0000000  ORB. ENERGY =  -10.189023
  0.32465790D+00  0.58400169D+00  0.85134159D+00  0.83376585D+00  0.32790265D+00
  0.56158720D-02 -0.87312557D-03  0.84195985D-03  0.66756340D-03  0.31938400D-03
  0.12172110D-02  0.96508816D-03  0.46172950D-03 -0.22393953D-05 -0.17755459D-05
 -0.84947878D-06 -0.23819495D-04 -0.40531954D-04 -0.66086659D-06 -0.80618647D-04
  0.29808091D-03 -0.21746227D-03  0.14503109D-02 -0.34846035D-05  0.32274863D-07
 -0.28175281D-03 -0.47797662D-03 -0.54415122D-03  0.31155188D-03  0.61476505D-03
  0.81179987D-03 -0.10799484D-05  0.34181399D+00  0.61486245D+00  0.89632954D+00
  0.87782504D+00  0.34523020D+00  0.60069990D-02 -0.10432889D-02  0.14569271D-02
  0.11551515D-02  0.55266198D-03 -0.16254792D-03 -0.12887912D-03 -0.61659952D-04
 -0.16342064D-05 -0.12957107D-05 -0.61991005D-06 -0.22225926D-04  0.24601539D-05
  0.15039935D-05  0.87501492D-03 -0.58022476D-03 -0.29479016D-03 -0.36469116D-03
 -0.35817882D-05  0.74285441D-06 -0.30105018D-03 -0.51071344D-03 -0.58142037D-03
  0.33377153D-03  0.10865748D-02 -0.13215401D-03 -0.32327379D-05  0.32800231D+00
  0.59001770D+00  0.86011156D+00  0.84235476D+00  0.33128049D+00  0.56906533D-02
 -0.90110597D-03  0.52150432D-03  0.41348432D-03  0.19782432D-03 -0.13842979D-02
 -0.10975661D-02 -0.52511126D-03 -0.23265492D-05 -0.18446475D-05 -0.88253923D-06
 -0.98729990D-05  0.41672629D-04 -0.39041723D-06 -0.38467296D-03  0.61540817D-03
 -0.23073521D-03 -0.11189049D-02 -0.39202196D-05  0.12251412D-05 -0.28561131D-03
 -0.48452233D-03 -0.55160318D-03  0.31536247D-03  0.41071618D-03 -0.94736756D-03
 -0.15278776D-05  0.32519457D+00  0.58496707D+00  0.85274889D+00  0.83514410D+00
  0.32844468D+00  0.56267794D-02 -0.87377047D-03 -0.84499500D-03 -0.66996988D-03
 -0.32053533D-03 -0.12160839D-02 -0.96419458D-03 -0.46130198D-03 -0.22429239D-05
 -0.17783436D-05 -0.85081728D-06  0.22316596D-04  0.40964711D-04 -0.65839091D-06
 -0.81526802D-04  0.29976724D-03 -0.21824044D-03  0.14507680D-02  0.34831315D-05
 -0.10746612D-07 -0.28244808D-03 -0.47915610D-03 -0.54549401D-03  0.31178590D-03
 -0.61493674D-03 -0.81393204D-03 -0.10878977D-05  0.34157035D+00  0.61442417D+00
  0.89569063D+00  0.87719932D+00  0.34498412D+00  0.60020533D-02 -0.10430103D-02
 -0.14560306D-02 -0.11544408D-02 -0.55232193D-03  0.16643670D-03  0.13196241D-03
  0.63135099D-04 -0.16410904D-05 -0.13011688D-05 -0.62252139D-06  0.22703452D-04
 -0.62769328D-06  0.15047325D-05  0.87494944D-03 -0.58050195D-03 -0.29444749D-03
 -0.36155114D-03  0.35925456D-05 -0.76324694D-06 -0.30073315D-03 -0.51017561D-03
 -0.58080809D-03  0.33366794D-03 -0.10859381D-02  0.13060503D-03 -0.32378303D-05
  0.32721200D+00  0.58859607D+00  0.85803915D+00  0.84032514D+00  0.33048228D+00
  0.56745534D-02 -0.90009227D-03 -0.52017657D-03 -0.41243159D-03 -0.19732066D-03
  0.13834378D-02  0.10968842D-02  0.52478501D-03 -0.23284413D-05 -0.18461476D-05
 -0.88325695D-06  0.10569030D-04 -0.42247678D-04 -0.39100790D-06 -0.38445174D-03
  0.61399580D-03 -0.22954406D-03 -0.11181277D-02  0.39208056D-05 -0.12199669D-05
 -0.28459162D-03 -0.48279249D-03 -0.54963384D-03  0.31500459D-03 -0.40996061D-03
  0.94477514D-03 -0.15250797D-05
MO    2     MO 0.0        OCC NO =    2.0000000  ORB. ENERGY =  -10.188868
 -0.19507068D+00 -0.35089738D+00 -0.51152854D+00 -0.50096815D+00 -0.19702028D+00
 -0.39383018D-02  0.14155761D-03  0.15336046D-02  0.12159467D-02  0.58174836D-03
 -0.16098837D-02 -0.12764260D-02 -0.61068361D-03  0.20333592D-05  0.16121864D-05
  0.77132228D-06  0.70836467D-03 -0.77949690D-03  0.17776373D-05 -0.87746025D-03
  0.63161855D-03  0.24584171D-03 -0.91260232D-03  0.33038962D-05 -0.28380637D-05
  0.25658670D-03  0.43528384D-03  0.49554774D-03 -0.76757951D-04 -0.10285251D-02
 -0.31119403D-04 -0.14624141D-06 -0.47504595D+00 -0.85452298D+00 -0.12457001D+01
 -0.12199829D+01 -0.47979373D+00 -0.97146754D-02  0.69942885D-03 -0.78802185D-03
 -0.62479766D-03 -0.29892348D-03 -0.88560251D-04 -0.70216629D-04 -0.33593914D-04
  0.35347858D-05  0.28026202D-05  0.13408645D-05 -0.49350648D-03 -0.26746558D-04
  0.90281759D-07 -0.84769750D-03  0.10209220D-03  0.74560530D-03  0.37764207D-03
  0.35321696D-05  0.79568570D-06  0.61454882D-03  0.10425449D-02  0.11868825D-02
 -0.22642476D-03 -0.15954693D-02  0.25874675D-03  0.38955673D-05 -0.25569116D+00
 -0.45994283D+00 -0.67049199D+00 -0.65664985D+00 -0.25824663D+00 -0.51737488D-02
  0.21926133D-03  0.16645497D-02  0.13197690D-02  0.63142031D-03  0.12241410D-02
  0.97058278D-03  0.46435830D-03  0.25225181D-05  0.20000250D-05  0.95687687D-06
  0.76972519D-03  0.61295179D-03  0.18762417D-05 -0.53172923D-03  0.19564782D-03
  0.33608141D-03  0.15036754D-02  0.17941517D-05  0.94908506D-07  0.33533987D-03
  0.56888383D-03  0.64764430D-03 -0.10434677D-03 -0.10110630D-02  0.48791422D-03
  0.43816822D-06  0.19546731D+00  0.35161084D+00  0.51256861D+00  0.50198675D+00
  0.19742088D+00  0.39462003D-02 -0.14398534D-03  0.15335601D-02  0.12159114D-02
  0.58173148D-03 -0.16108432D-02 -0.12771867D-02 -0.61104758D-03 -0.20237608D-05
 -0.16045761D-05 -0.76768129D-06  0.70820552D-03 -0.77966696D-03 -0.17730388D-05
  0.87801868D-03 -0.63118140D-03 -0.24683728D-03  0.91363915D-03  0.33181493D-05
 -0.28272733D-05 -0.25697478D-03 -0.43594219D-03 -0.49629724D-03  0.77203144D-04
 -0.10294673D-02 -0.32287367D-04  0.13831397D-06  0.47523879D+00  0.85486988D+00
  0.12462058D+01  0.12204782D+01  0.47998850D+00  0.97179133D-02 -0.69981825D-03
 -0.78884124D-03 -0.62544733D-03 -0.29923430D-03 -0.87122861D-04 -0.69076968D-04
 -0.33048664D-04 -0.35398047D-05 -0.28065995D-05 -0.13427683D-05 -0.49347235D-03
 -0.26925455D-04 -0.92116037D-07  0.84832031D-03 -0.10265857D-03 -0.74566174D-03
 -0.37692087D-03  0.35538563D-05  0.78641295D-06 -0.61471383D-03 -0.10428249D-02
 -0.11872012D-02  0.22660450D-03 -0.15960535D-02  0.25871045D-03 -0.39075538D-05
  0.25574777D+00  0.46004465D+00  0.67064042D+00  0.65679521D+00  0.25830380D+00
  0.51738688D-02 -0.21827738D-03  0.16633723D-02  0.13188354D-02  0.63097366D-03
  0.12248467D-02  0.97114229D-03  0.46462599D-03 -0.25166808D-05 -0.19953968D-05
 -0.95466258D-06  0.76987102D-03  0.61274192D-03 -0.18736311D-05  0.53088483D-03
 -0.19537310D-03 -0.33551174D-03 -0.15039859D-02  0.18085276D-05  0.88725704D-07
 -0.33535515D-03 -0.56890975D-03 -0.64767381D-03  0.10434834D-03 -0.10109760D-02
  0.48790686D-03 -0.44422839D-06
MO    3     MO 0.0        OCC NO =    2.0000000  ORB. ENERGY =  -10.188851
  0.42032362D+00  0.75608727D+00  0.11022032D+01  0.10794485D+01  0.42452448D+00
  0.85525603D-02 -0.50361225D-03  0.12800986D-02  0.10149498D-02  0.48558494D-03
 -0.52765613D-04 -0.41836189D-04 -0.20015791D-04 -0.15668043D-05 -0.12422697D-05
 -0.59434215D-06  0.65648627D-03  0.44360826D-04  0.84362532D-06 -0.21635897D-03
  0.82828589D-03 -0.61192692D-03  0.65763427D-03 -0.11061800D-05 -0.88950710D-05
 -0.54679189D-03 -0.92759939D-03 -0.10560231D-02  0.18768173D-03  0.53611743D-03
  0.13620398D-02 -0.37905096D-05  0.37188789D-01  0.66896003D-01  0.97519152D-01
  0.95505892D-01  0.37560467D-01  0.76584430D-03 -0.73048320D-04 -0.23487678D-03
 -0.18622639D-03 -0.89096749D-04 -0.24150699D-02 -0.19148327D-02 -0.91611812D-03
 -0.14033440D-06 -0.11126671D-06 -0.53233608D-07 -0.98897454D-04 -0.11412326D-02
  0.25191160D-06  0.29270338D-03 -0.22708444D-03 -0.65618940D-04  0.18145836D-02
  0.69206748D-06  0.11886842D-04 -0.47479532D-04 -0.80546157D-04 -0.91697560D-04
  0.19840285D-04  0.23427795D-03  0.86877140D-03 -0.51916281D-06 -0.38898502D+00
 -0.69971471D+00 -0.10200248D+01 -0.99896667D+00 -0.39287267D+00 -0.79334896D-02
  0.51401661D-03 -0.15171330D-02 -0.12028869D-02 -0.57550012D-03  0.61132535D-04
  0.48470058D-04  0.23189649D-04  0.14133031D-05  0.11205634D-05  0.53611391D-06
 -0.75091761D-03  0.11191980D-03 -0.11886342D-05  0.38146650D-03 -0.96839619D-03
  0.58692969D-03 -0.12558225D-03 -0.55955058D-06 -0.92066442D-05  0.50481867D-03
  0.85639437D-03  0.97495992D-03 -0.17885244D-03 -0.53853739D-04  0.14055269D-02
  0.42034213D-05 -0.41988750D+00 -0.75530276D+00 -0.11010596D+01 -0.10783285D+01
 -0.42408400D+00 -0.85454251D-02  0.50300994D-03  0.12800876D-02  0.10149411D-02
  0.48558074D-03 -0.55774727D-04 -0.44222022D-04 -0.21157250D-04  0.15677704D-05
  0.12430357D-05  0.59470860D-06  0.65643321D-03  0.44632953D-04 -0.84080425D-06
  0.21661559D-03 -0.82855474D-03  0.61193915D-03 -0.65496989D-03 -0.11019065D-05
 -0.88977815D-05  0.54642672D-03  0.92697991D-03  0.10553178D-02 -0.18728709D-03
  0.53524131D-03  0.13611251D-02  0.37899145D-05 -0.36391208D-01 -0.65461297D-01
 -0.95427677D-01 -0.93457596D-01 -0.36754915D-01 -0.75048715D-03  0.68787495D-04
 -0.23693781D-03 -0.18786052D-03 -0.89878568D-04 -0.24144297D-02 -0.19143251D-02
 -0.91587526D-03  0.13491530D-06  0.10697008D-06  0.51177959D-07 -0.99235148D-04
 -0.11412232D-02 -0.24653591D-06 -0.29071872D-03  0.22675355D-03  0.63965174D-04
 -0.18148641D-02  0.69646987D-06  0.11875352D-04  0.46717756D-04  0.79253850D-04
  0.90226337D-04 -0.18976477D-04  0.23142421D-03  0.86907791D-03  0.51141362D-06
  0.38932200D+00  0.70032088D+00  0.10209085D+01  0.99983209D+00  0.39321302D+00
  0.79383662D-02 -0.51361103D-03 -0.15168188D-02 -0.12026378D-02 -0.57538095D-03
  0.63985070D-04  0.50731744D-04  0.24271713D-04 -0.14273893D-05 -0.11317320D-05
 -0.54145730D-06 -0.75091661D-03  0.11156057D-03  0.11842847D-05 -0.38218735D-03
  0.96864860D-03 -0.58646126D-03  0.12314004D-03 -0.54869689D-06 -0.92093547D-05
 -0.50507556D-03 -0.85683017D-03 -0.97545606D-03  0.17911802D-03 -0.54289239D-04
  0.14062266D-02 -0.42077731D-05
MO    4     MO 0.0        OCC NO =    2.0000000  ORB. ENERGY =  -10.188454
 -0.20807800D+00 -0.37429523D+00 -0.54563729D+00 -0.53437274D+00 -0.21015761D+00
 -0.47097042D-02  0.20587699D-02 -0.22131123D-02 -0.17547069D-02 -0.83950873D-03
  0.18142465D-02  0.14384588D-02  0.68820537D-03 -0.45923089D-05 -0.36410968D-05
 -0.17420189D-05  0.77013882D-04 -0.41832194D-03  0.94291905D-06  0.52355923D-03
 -0.14554650D-02  0.93190572D-03  0.57469618D-03 -0.32648690D-05  0.90493294D-05
  0.22984519D-03  0.38991848D-03  0.44390167D-03 -0.27080769D-03 -0.35501882D-03
 -0.87715330D-03  0.14431634D-05  0.45945011D+00  0.82646886D+00  0.12048035D+01
  0.11799307D+01  0.46404202D+00  0.10524565D-01 -0.47164846D-02 -0.42215904D-03
 -0.33471658D-03 -0.16013928D-03 -0.20447075D-03 -0.16211841D-03 -0.77562708D-04
 -0.11643701D-04 -0.92319229D-05 -0.44168515D-05  0.67146514D-03 -0.52032589D-04
  0.23324156D-05  0.10477524D-02  0.10989365D-02 -0.21466889D-02  0.20062437D-03
  0.16253582D-05 -0.21728367D-06 -0.51316843D-03 -0.87055923D-03 -0.99108587D-03
  0.60620335D-03  0.20380626D-02 -0.22361595D-03 -0.40478887D-05 -0.27303984D+00
 -0.49115001D+00 -0.71598496D+00 -0.70120363D+00 -0.27576870D+00 -0.61928183D-02
  0.27201927D-02 -0.23243703D-02 -0.18429199D-02 -0.88171268D-03 -0.11848391D-02
 -0.93942151D-03 -0.44944974D-03 -0.38607564D-05 -0.30610719D-05 -0.14645162D-05
  0.11223031D-03  0.46370200D-03  0.83006553D-06  0.60255403D-04 -0.12924507D-02
  0.12321953D-02 -0.13007863D-02 -0.40791554D-05 -0.86659225D-05  0.30210840D-03
  0.51250864D-03  0.58346412D-03 -0.35633947D-03 -0.27100380D-03  0.11931473D-02
  0.22167494D-05 -0.20759712D+00 -0.37343021D+00 -0.54437628D+00 -0.53313776D+00
 -0.20967192D+00 -0.46988230D-02  0.20552895D-02  0.22128615D-02  0.17545081D-02
  0.83941361D-03 -0.18137454D-02 -0.14380615D-02 -0.68801531D-03 -0.45762582D-05
 -0.36283708D-05 -0.17359303D-05 -0.77482858D-04  0.41808607D-03  0.94202343D-06
  0.52429770D-03 -0.14542422D-02  0.92994447D-03  0.57490074D-03  0.32604850D-05
 -0.90231456D-05  0.22930461D-03  0.38900142D-03  0.44285765D-03 -0.27025012D-03
  0.35391938D-03  0.87538565D-03  0.14390873D-05  0.45925709D+00  0.82612164D+00
  0.12042974D+01  0.11794350D+01  0.46384707D+00  0.10519571D-01 -0.47133823D-02
  0.42157072D-03  0.33425013D-03  0.15991611D-03  0.20593247D-03  0.16327736D-03
  0.78117189D-04 -0.11635264D-04 -0.92252339D-05 -0.44136513D-05 -0.67121556D-03
  0.52645223D-04  0.23272450D-05  0.10472755D-02  0.10978799D-02 -0.21451553D-02
  0.20159657D-03 -0.15873137D-05  0.19767464D-06 -0.51300886D-03 -0.87028853D-03
 -0.99077769D-03  0.60578180D-03 -0.20370297D-02  0.22298654D-03 -0.40588495D-05
 -0.27301193D+00 -0.49109980D+00 -0.71591177D+00 -0.70113195D+00 -0.27574051D+00
 -0.61912039D-02  0.27173048D-02  0.23255858D-02  0.18438836D-02  0.88217377D-03
  0.11842182D-02  0.93892927D-03  0.44921424D-03 -0.38495728D-05 -0.30522048D-05
 -0.14602739D-05 -0.11185973D-03 -0.46353809D-03  0.82980012D-06  0.61401961D-04
 -0.12923095D-02  0.12309076D-02 -0.13007471D-02  0.40666493D-05  0.86663630D-05
  0.30216839D-03  0.51261042D-03  0.58357999D-03 -0.35599619D-03  0.27050202D-03
 -0.11927731D-02  0.22207341D-05
MO    5     MO 0.0        OCC NO =    2.0000000  ORB. ENERGY =  -10.188434
  0.42421028D+00  0.76307868D+00  0.11123951D+01  0.10894300D+01  0.42844999D+00
  0.96734337D-02 -0.42937106D-02 -0.12821323D-02 -0.10165622D-02 -0.48635637D-03
  0.55780363D-03  0.44226490D-03  0.21159388D-03 -0.22805848D-06 -0.18082038D-06
 -0.86510337D-07  0.48284121D-03  0.39881580D-03 -0.40289641D-06  0.14523002D-02
  0.49729252D-03 -0.19495927D-02  0.22765142D-03 -0.42260587D-05 -0.97140409D-05
 -0.47200336D-03 -0.80072517D-03 -0.91158347D-03  0.55663518D-03  0.12217378D-02
  0.14371412D-02 -0.37476736D-05 -0.35437495D-01 -0.63745738D-01 -0.92926781D-01
 -0.91008331D-01 -0.35791670D-01 -0.81738804D-03  0.37151481D-03 -0.34075748D-03
 -0.27017586D-03 -0.12926090D-03 -0.31365626D-02 -0.24868815D-02 -0.11898048D-02
  0.15197697D-05  0.12049774D-05  0.57650032D-06 -0.12097197D-04  0.35084671D-03
 -0.26747057D-06  0.19107547D-03 -0.36039105D-03  0.16931558D-03  0.22097834D-02
  0.91932118D-06  0.96166603D-05  0.39926784D-04  0.67733375D-04  0.77110883D-04
 -0.47012168D-04 -0.12655342D-03  0.28308842D-03  0.35273840D-06 -0.38396683D+00
 -0.69068790D+00 -0.10068658D+01 -0.98607930D+00 -0.38780434D+00 -0.87748963D-02
  0.39130796D-02  0.17773759D-02  0.14092253D-02  0.67421912D-03  0.42222651D-03
  0.33477008D-03  0.16016487D-03  0.29090932D-05  0.23065282D-05  0.11035180D-05
 -0.39840454D-03  0.43388560D-03 -0.14109497D-06 -0.13793252D-02 -0.39951281D-03
  0.17788380D-02  0.85300902D-03  0.63862032D-06 -0.89034470D-05  0.42784490D-03
  0.72581302D-03  0.82629993D-03 -0.50543590D-03 -0.81227180D-03  0.15113979D-02
  0.38076518D-05  0.42496607D+00  0.76443821D+00  0.11143770D+01  0.10913709D+01
  0.42921333D+00  0.96924262D-02 -0.43043346D-02  0.12828717D-02  0.10171485D-02
  0.48663686D-03 -0.55538480D-03 -0.44034708D-03 -0.21067634D-03 -0.21382902D-06
 -0.16953829D-06 -0.81112619D-07 -0.48360372D-03 -0.39912209D-03 -0.40406445D-06
  0.14547644D-02  0.50015864D-03 -0.19549230D-02  0.22661401D-03  0.42624904D-05
  0.97403986D-05 -0.47268053D-03 -0.80187395D-03 -0.91289130D-03  0.55810632D-03
 -0.12239163D-02 -0.14405938D-02 -0.37601232D-05 -0.36395238D-01 -0.65468546D-01
 -0.95438244D-01 -0.93467944D-01 -0.36758985D-01 -0.84048055D-03  0.38238741D-03
  0.33882343D-03  0.26864241D-03  0.12852725D-03  0.31370934D-02  0.24873024D-02
  0.11900062D-02  0.15443947D-05  0.12245018D-05  0.58584143D-06  0.13010592D-04
 -0.35081283D-03 -0.27284676D-06  0.18849923D-03 -0.36344457D-03  0.17494534D-03
  0.22099114D-02 -0.91498551D-06 -0.96083417D-05  0.40869851D-04  0.69333232D-04
  0.78932236D-04 -0.48581883D-04  0.13124240D-03 -0.28376223D-03  0.36245173D-06
 -0.38331162D+00 -0.68950928D+00 -0.10051476D+01 -0.98439661D+00 -0.38714257D+00
 -0.87579546D-02  0.39025814D-02 -0.17768837D-02 -0.14088350D-02 -0.67403241D-03
 -0.42479929D-03 -0.33680996D-03 -0.16114081D-03  0.29035083D-05  0.23021001D-05
  0.11013994D-05  0.39790719D-03 -0.43344527D-03 -0.13692732D-06 -0.13765135D-02
 -0.39714463D-03  0.17736581D-02  0.85412729D-03 -0.68413071D-06  0.88887361D-05
  0.42730043D-03  0.72488936D-03  0.82524839D-03 -0.50401258D-03  0.81100246D-03
 -0.15078824D-02  0.38075925D-05
MO    6     MO 0.0        OCC NO =    2.0000000  ORB. ENERGY =  -10.188320
  0.33856560D+00  0.60901917D+00  0.88781138D+00  0.86948273D+00  0.34194935D+00
  0.84040073D-02 -0.44887601D-02 -0.60694625D-03 -0.48122853D-03 -0.23023535D-03
 -0.72180047D-03 -0.57229282D-03 -0.27380346D-03  0.25428001D-05  0.20161060D-05
  0.96457053D-06  0.17373277D-03  0.26825217D-03 -0.11334073D-06  0.11967533D-02
  0.10703561D-02 -0.22671094D-02 -0.29128576D-03 -0.78089980D-06 -0.13526169D-04
 -0.31471588D-03 -0.53389647D-03 -0.60781303D-03  0.62893409D-03  0.10792309D-02
  0.14101584D-02 -0.33251136D-05 -0.31900960D+00 -0.57384142D+00 -0.83653022D+00
 -0.81926025D+00 -0.32219790D+00 -0.80025948D-02  0.44581589D-02  0.96303076D-03
  0.76355670D-03  0.36531031D-03 -0.12999375D-03 -0.10306795D-03 -0.49311050D-04
  0.11499151D-04  0.91173142D-05  0.43620190D-05 -0.29675357D-03  0.31395559D-04
 -0.25974218D-05 -0.94312024D-03 -0.12925914D-02  0.22357116D-02 -0.74209485D-04
 -0.42740582D-05  0.16310335D-05  0.28929372D-03  0.49076932D-03  0.55871504D-03
 -0.61958660D-03 -0.16959167D-02  0.20778710D-03  0.28403545D-05  0.33429149D+00
  0.60133081D+00  0.87660349D+00  0.85850623D+00  0.33763252D+00  0.83142613D-02
 -0.44744612D-02 -0.42658723D-03 -0.33822755D-03 -0.16181904D-03  0.84671069D-03
  0.67133019D-03  0.32118615D-03  0.51499845D-06  0.40832603D-06  0.19535642D-06
  0.98702944D-04 -0.29933929D-03  0.23454089D-06  0.12562427D-02  0.10013326D-02
 -0.22575753D-02  0.20210033D-03  0.40486638D-05  0.12262000D-04 -0.30931520D-03
 -0.52473454D-03 -0.59738266D-03  0.62613586D-03  0.71148322D-03 -0.16100341D-02
 -0.35029166D-05 -0.33770925D+00 -0.60747875D+00 -0.88556580D+00 -0.86728351D+00
 -0.34108444D+00 -0.83844199D-02  0.44800162D-02 -0.60236632D-03 -0.47759725D-03
 -0.22849803D-03 -0.72439853D-03 -0.57435274D-03 -0.27478899D-03 -0.25480925D-05
 -0.20203022D-05 -0.96657814D-06  0.17252161D-03  0.26760799D-03  0.11340603D-06
 -0.11929307D-02 -0.10701997D-02  0.22631304D-02  0.29223049D-03 -0.80575343D-06
 -0.13495737D-04  0.31375465D-03  0.53226580D-03  0.60595660D-03 -0.62779985D-03
  0.10765897D-02  0.14073665D-02  0.33205737D-05  0.31924536D+00  0.57426549D+00
  0.83714842D+00  0.81986569D+00  0.32243601D+00  0.80080104D-02 -0.44605984D-02
  0.96415093D-03  0.76444486D-03  0.36573523D-03 -0.12237653D-03 -0.97028491D-04
 -0.46421579D-04 -0.11499722D-04 -0.91177664D-05 -0.43622354D-05 -0.29719933D-03
  0.30610153D-04  0.25970628D-05  0.94430616D-03  0.12925186D-02 -0.22368247D-02
  0.79611206D-04 -0.42426495D-05  0.15948339D-05 -0.28955970D-03 -0.49122053D-03
 -0.55922873D-03  0.61990063D-03 -0.16970441D-02  0.20726101D-03 -0.28527236D-05
 -0.33540329D+00 -0.60333074D+00 -0.87951894D+00 -0.86136148D+00 -0.33875543D+00
 -0.83396091D-02  0.44857018D-02 -0.42909669D-03 -0.34021722D-03 -0.16277096D-03
  0.84648848D-03  0.67115401D-03  0.32110186D-03 -0.51429425D-06 -0.40776769D-06
 -0.19508930D-06  0.99578616D-04 -0.30069331D-03 -0.23328501D-06 -0.12594557D-02
 -0.10032271D-02  0.22626828D-02 -0.20095519D-03  0.40131454D-05  0.12302019D-04
  0.31056033D-03  0.52684683D-03  0.59978739D-03 -0.62760452D-03  0.71360680D-03
 -0.16144954D-02  0.35209976D-05
MO    7     MO 0.0        OCC NO =    2.0000000  ORB. ENERGY =   -0.847783
 -0.98262116D-01 -0.17675603D+00 -0.25767008D+00 -0.25235054D+00 -0.99244183D-01
  0.82216355D-01  0.76141465D-02 -0.54127819D-01 -0.42916240D-01 -0.20532522D-01
 -0.72070372D-01 -0.57142324D-01 -0.27338743D-01  0.12173936D-03  0.96523298D-04
  0.46179879D-04 -0.12164104D-02 -0.16213526D-02  0.24029240D-05  0.50514005D-02
  0.38177648D-02 -0.88691653D-02 -0.41720607D-02  0.31211779D-06 -0.34660825D-04
  0.72500994D-02  0.12299356D-01  0.14002169D-01  0.12923019D-02 -0.49369088D-02
 -0.65822020D-02  0.13588081D-04 -0.98214082D-01 -0.17666963D+00 -0.25754412D+00
 -0.25222718D+00 -0.99195669D-01  0.82181135D-01  0.76228242D-02 -0.89450370D-01
 -0.70922376D-01 -0.33931567D-01  0.10761886D-01  0.85327601D-02  0.40823494D-02
 -0.26456194D-03 -0.20976282D-03 -0.10035734D-03 -0.20212505D-02  0.24312165D-03
 -0.32014774D-05  0.23241312D-02  0.65458319D-02 -0.88699631D-02  0.10269731D-02
  0.46983445D-04 -0.84046364D-05  0.72477293D-02  0.12295335D-01  0.13997592D-01
  0.12947011D-02 -0.81629277D-02  0.98123537D-03  0.13404363D-05 -0.98255358D-01
 -0.17674388D+00 -0.25765235D+00 -0.25233318D+00 -0.99237357D-01  0.82211554D-01
  0.76154423D-02 -0.35530118D-01 -0.28170709D-01 -0.13477782D-01  0.82829627D-01
  0.65672998D-01  0.31420094D-01  0.73766617D-04  0.58487223D-04  0.27982186D-04
 -0.79814900D-03  0.18642867D-02  0.19209036D-05  0.59430297D-02  0.29262507D-02
 -0.88692803D-02  0.31340899D-02  0.14589658D-04  0.26248038D-04  0.72495290D-02
  0.12298388D-01  0.14001067D-01  0.12924872D-02 -0.32374253D-02  0.75630140D-02
  0.12902801D-04 -0.98262507D-01 -0.17675674D+00 -0.25767110D+00 -0.25235154D+00
 -0.99244578D-01  0.82216739D-01  0.76142309D-02  0.54129218D-01  0.42917349D-01
  0.20533053D-01  0.72070129D-01  0.57142131D-01  0.27338650D-01  0.12188424D-03
  0.96638166D-04  0.46234835D-04  0.12163580D-02  0.16213465D-02  0.24062862D-05
  0.50515289D-02  0.38176747D-02 -0.88692036D-02 -0.41720078D-02 -0.15681647D-06
  0.34589548D-04  0.72500357D-02  0.12299247D-01  0.14002046D-01  0.12922662D-02
  0.49369004D-02  0.65821072D-02  0.13602446D-04 -0.98213912D-01 -0.17666932D+00
 -0.25754367D+00 -0.25222675D+00 -0.99195497D-01  0.82180975D-01  0.76227951D-02
  0.89450122D-01  0.70922180D-01  0.33931473D-01 -0.10761726D-01 -0.85326327D-02
 -0.40822884D-02 -0.26408230D-03 -0.20938252D-03 -0.10017540D-03  0.20212710D-02
 -0.24307335D-03 -0.31901152D-05  0.23241148D-02  0.65458346D-02 -0.88699493D-02
  0.10268863D-02 -0.46869127D-04  0.83499936D-05  0.72477490D-02  0.12295368D-01
  0.13997630D-01  0.12947141D-02  0.81629526D-02 -0.98122944D-03  0.13883559D-05
 -0.98254771D-01 -0.17674282D+00 -0.25765082D+00 -0.25233168D+00 -0.99236764D-01
  0.82210980D-01  0.76153131D-02  0.35528929D-01  0.28169767D-01  0.13477331D-01
 -0.82829192D-01 -0.65672653D-01 -0.31419929D-01  0.74113414D-04  0.58762188D-04
  0.28113738D-04  0.79818100D-03 -0.18643213D-02  0.19288522D-05  0.59429375D-02
  0.29262809D-02 -0.88692184D-02  0.31341512D-02 -0.14439491D-04 -0.26277272D-04
  0.72496173D-02  0.12298538D-01  0.14001238D-01  0.12925349D-02  0.32374361D-02
 -0.75631351D-02  0.12936366D-04
MO    8     MO 0.0        OCC NO =    2.0000000  ORB. ENERGY =   -0.739208
 -0.12314240D+00 -0.22151123D+00 -0.32291298D+00 -0.31624652D+00 -0.12437313D+00
  0.10639645D+00  0.10377734D-01 -0.75306528D-01 -0.59708170D-01 -0.28566327D-01
  0.13619184D-01  0.10798221D-01  0.51662194D-02  0.71285183D-04  0.56519773D-04
  0.27040894D-04 -0.25529695D-02  0.61838995D-03 -0.68615812D-06  0.96349192D-02
 -0.28569858D-02 -0.67779334D-02 -0.73907257D-02 -0.35284306D-05 -0.26900014D-04
  0.14849715D-01  0.25191645D-01  0.28679362D-01  0.22899365D-02 -0.84558986D-02
 -0.96146049D-02  0.22736120D-04 -0.92377794D-02 -0.16617119D-01 -0.24223978D-01
 -0.23723880D-01 -0.93301051D-02  0.79819103D-02  0.77747626D-03  0.15895945D-01
  0.12603393D-01  0.60298723D-02  0.15387057D+00  0.12199912D+00  0.58368338D-01
 -0.34532499D-04 -0.27379729D-04 -0.13099351D-04  0.57513765D-03  0.54343462D-02
 -0.63213123D-07 -0.27892405D-02  0.32980239D-02 -0.50878343D-03 -0.21608106D-01
 -0.48688967D-05 -0.64718217D-04  0.11136919D-02  0.18893110D-02  0.21508812D-02
  0.17167549D-03 -0.68160473D-03  0.23524005D-02  0.20533533D-07  0.11390920D+00
  0.20490236D+00  0.29870101D+00  0.29253440D+00  0.11504765D+00 -0.98419821D-01
 -0.95979423D-02  0.92015487D-01  0.72956177D-01  0.34904603D-01  0.48656061D-02
  0.38577856D-02  0.18456898D-02  0.37856440D-05  0.30015177D-05  0.14360235D-05
  0.31831806D-02  0.31977379D-03  0.69532639D-06 -0.11055194D-01  0.47848829D-02
  0.62703109D-02  0.15739468D-02 -0.10110572D-04 -0.20460219D-04 -0.13735571D-01
 -0.23301566D-01 -0.26527607D-01 -0.21178653D-02  0.58040643D-02 -0.10359525D-01
 -0.19801462D-04  0.12314244D+00  0.22151131D+00  0.32291309D+00  0.31624662D+00
  0.12437317D+00 -0.10639654D+00 -0.10377703D-01 -0.75308978D-01 -0.59710113D-01
 -0.28567256D-01  0.13619639D-01  0.10798582D-01  0.51663920D-02 -0.71705363D-04
 -0.56852920D-04 -0.27200282D-04 -0.25529443D-02  0.61844916D-03  0.67147781D-06