 Entering Gaussian System, Link 0=g09
 Initial command:
 /opt/g09/l1.exe "/opt/g09/scratch/Gau-31997.inp" -scrdir="/opt/g09/scratch/"
 Entering Link 1 = /opt/g09/l1.exe PID=     31999.
  
 Copyright (c) 1988,1990,1992,1993,1995,1998,2003,2009,2013,
            Gaussian, Inc.  All Rights Reserved.
  
 This is part of the Gaussian(R) 09 program.  It is based on
 the Gaussian(R) 03 system (copyright 2003, Gaussian, Inc.),
 the Gaussian(R) 98 system (copyright 1998, Gaussian, Inc.),
 the Gaussian(R) 94 system (copyright 1995, Gaussian, Inc.),
 the Gaussian 92(TM) system (copyright 1992, Gaussian, Inc.),
 the Gaussian 90(TM) system (copyright 1990, Gaussian, Inc.),
 the Gaussian 88(TM) system (copyright 1988, Gaussian, Inc.),
 the Gaussian 86(TM) system (copyright 1986, Carnegie Mellon
 University), and the Gaussian 82(TM) system (copyright 1983,
 Carnegie Mellon University). Gaussian is a federally registered
 trademark of Gaussian, Inc.
  
 This software contains proprietary and confidential information,
 including trade secrets, belonging to Gaussian, Inc.
  
 This software is provided under written license and may be
 used, copied, transmitted, or stored only in accord with that
 written license.
  
 The following legend is applicable only to US Government
 contracts under FAR:
  
                    RESTRICTED RIGHTS LEGEND
  
 Use, reproduction and disclosure by the US Government is
 subject to restrictions as set forth in subparagraphs (a)
 and (c) of the Commercial Computer Software - Restricted
 Rights clause in FAR 52.227-19.
  
 Gaussian, Inc.
 340 Quinnipiac St., Bldg. 40, Wallingford CT 06492
  
  
 ---------------------------------------------------------------
 Warning -- This program may not be used in any manner that
 competes with the business of Gaussian, Inc. or will provide
 assistance to any competitor of Gaussian, Inc.  The licensee
 of this program is prohibited from giving any competitor of
 Gaussian, Inc. access to this program.  By using this program,
 the user acknowledges that Gaussian, Inc. is engaged in the
 business of creating and licensing software in the field of
 computational chemistry and represents and warrants to the
 licensee that it is not a competitor of Gaussian, Inc. and that
 it will not use this program in any manner prohibited above.
 ---------------------------------------------------------------
  

 Cite this work as:
 Gaussian 09, Revision D.01,
 M. J. Frisch, G. W. Trucks, H. B. Schlegel, G. E. Scuseria, 
 M. A. Robb, J. R. Cheeseman, G. Scalmani, V. Barone, B. Mennucci, 
 G. A. Petersson, H. Nakatsuji, M. Caricato, X. Li, H. P. Hratchian, 
 A. F. Izmaylov, J. Bloino, G. Zheng, J. L. Sonnenberg, M. Hada, 
 M. Ehara, K. Toyota, R. Fukuda, J. Hasegawa, M. Ishida, T. Nakajima, 
 Y. Honda, O. Kitao, H. Nakai, T. Vreven, J. A. Montgomery, Jr., 
 J. E. Peralta, F. Ogliaro, M. Bearpark, J. J. Heyd, E. Brothers, 
 K. N. Kudin, V. N. Staroverov, T. Keith, R. Kobayashi, J. Normand, 
 K. Raghavachari, A. Rendell, J. C. Burant, S. S. Iyengar, J. Tomasi, 
 M. Cossi, N. Rega, J. M. Millam, M. Klene, J. E. Knox, J. B. Cross, 
 V. Bakken, C. Adamo, J. Jaramillo, R. Gomperts, R. E. Stratmann, 
 O. Yazyev, A. J. Austin, R. Cammi, C. Pomelli, J. W. Ochterski, 
 R. L. Martin, K. Morokuma, V. G. Zakrzewski, G. A. Voth, 
 P. Salvador, J. J. Dannenberg, S. Dapprich, A. D. Daniels, 
 O. Farkas, J. B. Foresman, J. V. Ortiz, J. Cioslowski, 
 and D. J. Fox, Gaussian, Inc., Wallingford CT, 2013.
 
 ******************************************
 Gaussian 09:  EM64L-G09RevD.01 24-Apr-2013
                 4-Jan-2020 
 ******************************************
 --------------------------------------------------------
 # nosymmetry b3lyp def2svp int=grid=ultrafine output=wfn
 --------------------------------------------------------
 1/38=1/1;
 2/12=2,15=1,17=6,18=5,40=1/2;
 3/5=43,7=101,11=2,16=1,25=1,30=1,74=-5,75=-5/1,2,3;
 4//1;
 5/5=2,38=5/2;
 6/7=2,8=2,9=2,10=2,28=1/1;
 99/5=1,6=100,9=1/99;
 -------
 benzene
 -------
 Symbolic Z-matrix:
 Charge =  0 Multiplicity = 1
 C                     0.83552   1.11517   0.0214 
 H                     1.48432   1.98061   0.01953 
 C                     1.38327  -0.16615   0.02377 
 H                     2.45715  -0.2952    0.02277 
 C                     0.54755  -1.28132   0.02169 
 H                     0.97294  -2.2758    0.01978 
 C                    -0.83552  -1.11516   0.0214 
 H                    -1.48433  -1.98061   0.01953 
 C                    -1.38328   0.16615   0.02376 
 H                    -2.45716   0.29521   0.02276 
 C                    -0.54757   1.28132   0.02168 
 H                    -0.97294   2.27581   0.01977 
 
                          Input orientation:                          
 ---------------------------------------------------------------------
 Center     Atomic      Atomic             Coordinates (Angstroms)
 Number     Number       Type             X           Y           Z
 ---------------------------------------------------------------------
      1          6           0        0.835517    1.115167    0.021401
      2          1           0        1.484324    1.980609    0.019534
      3          6           0        1.383275   -0.166147    0.023765
      4          1           0        2.457149   -0.295205    0.022771
      5          6           0        0.547555   -1.281316    0.021686
      6          1           0        0.972936   -2.275805    0.019779
      7          6           0       -0.835523   -1.115162    0.021399
      8          1           0       -1.484334   -1.980606    0.019530
      9          6           0       -1.383284    0.166154    0.023758
     10          1           0       -2.457156    0.295209    0.022757
     11          6           0       -0.547566    1.281323    0.021680
     12          1           0       -0.972943    2.275805    0.019769
 ---------------------------------------------------------------------
                    Distance matrix (angstroms):
                    1          2          3          4          5
     1  C    0.000000
     2  H    1.081639   0.000000
     3  C    1.393488   2.149137   0.000000
     4  H    2.149149   2.475020   1.081602   0.000000
     5  C    2.413722   3.393773   1.393569   2.149178   0.000000
     6  H    3.393755   4.287023   2.149197   2.475010   1.081647
     7  C    2.786887   3.868525   2.413234   3.393232   1.393022
     8  H    3.868530   4.950167   3.393444   4.286710   2.148856
     9  C    2.413236   3.393440   2.786444   3.868045   2.413154
    10  H    3.393233   4.286706   3.868044   4.949645   3.393187
    11  C    1.393028   2.148856   2.413156   3.393192   2.786828
    12  H    2.148863   2.474935   3.393363   4.286681   3.868466
                    6          7          8          9         10
     6  H    0.000000
     7  C    2.148865   0.000000
     8  H    2.474938   1.081644   0.000000
     9  C    3.393368   1.393491   2.149142   0.000000
    10  H    4.286683   2.149149   2.475021   1.081600   0.000000
    11  C    3.868474   2.413723   3.393778   1.393568   2.149176
    12  H    4.950111   3.393751   4.287023   2.149192   2.475007
                   11         12
    11  C    0.000000
    12  H    1.081639   0.000000
 Symmetry turned off by external request.
 Stoichiometry    C6H6
 Framework group  C1[X(C6H6)]
 Deg. of freedom    30
 Full point group                 C1      NOp   1
 Rotational constants (GHZ):      5.7175800      5.7146720      2.8580663
 Standard basis: def2SVP (5D, 7F)
   114 basis functions,   192 primitive gaussians,   120 cartesian basis functions
    21 alpha electrons       21 beta electrons
       nuclear repulsion energy       203.7422805550 Hartrees.
 NAtoms=   12 NActive=   12 NUniq=   12 SFac= 1.00D+00 NAtFMM=   60 NAOKFM=F Big=F
 Integral buffers will be    131072 words long.
 Raffenetti 2 integral format.
 Two-electron integral symmetry is turned off.
 One-electron integrals computed using PRISM.
   1 Symmetry operations used in ECPInt.
 ECPInt:  NShTT=    1485 NPrTT=    5349 LenC2=    1486 LenP2D=    4584.
 LDataN:  DoStor=T MaxTD1= 4 Len=   56
 NBasis=   114 RedAO= T EigKep=  3.13D-04  NBF=   114
 NBsUse=   114 1.00D-06 EigRej= -1.00D+00 NBFU=   114
 ExpMin= 1.22D-01 ExpMax= 1.24D+03 ExpMxC= 1.86D+02 IAcc=3 IRadAn=         5 AccDes= 0.00D+00
 Harris functional with IExCor=  402 and IRadAn=       5 diagonalized for initial guess.
 HarFok:  IExCor=  402 AccDes= 0.00D+00 IRadAn=         5 IDoV= 1 UseB2=F ITyADJ=14
 ICtDFT=  3500011 ScaDFX=  1.000000  1.000000  1.000000  1.000000
 FoFCou: FMM=F IPFlag=           0 FMFlag=      100000 FMFlg1=           0
         NFxFlg=           0 DoJE=T BraDBF=F KetDBF=T FulRan=T
         wScrn=  0.000000 ICntrl=     500 IOpCl=  0 I1Cent=   200000004 NGrid=           0
         NMat0=    1 NMatS0=      1 NMatT0=    0 NMatD0=    1 NMtDS0=    0 NMtDT0=    0
 Symmetry not used in FoFCou.
 Keep R1 ints in memory in canonical form, NReq=22497038.
 Requested convergence on RMS density matrix=1.00D-08 within 128 cycles.
 Requested convergence on MAX density matrix=1.00D-06.
 Requested convergence on             energy=1.00D-06.
 No special actions if energy rises.
 Integral accuracy reduced to 1.0D-05 until final iterations.
 Initial convergence to 1.0D-05 achieved.  Increase integral accuracy.
 SCF Done:  E(RB3LYP) =  -232.084014772     A.U. after   10 cycles
            NFock= 10  Conv=0.76D-08     -V/T= 2.0113

 **********************************************************************

            Population analysis using the SCF density.

 **********************************************************************

 Alpha  occ. eigenvalues --  -10.18902 -10.18887 -10.18885 -10.18845 -10.18843
 Alpha  occ. eigenvalues --  -10.18832  -0.84778  -0.73921  -0.73906  -0.59880
 Alpha  occ. eigenvalues --   -0.59872  -0.52474  -0.45869  -0.44954  -0.42377
 Alpha  occ. eigenvalues --   -0.42363  -0.36979  -0.34706  -0.34697  -0.25647
 Alpha  occ. eigenvalues --   -0.25633
 Alpha virt. eigenvalues --   -0.00782  -0.00770   0.05987   0.10060   0.10064
 Alpha virt. eigenvalues --    0.13852   0.13853   0.15080   0.16074   0.28942
 Alpha virt. eigenvalues --    0.28961   0.30225   0.30243   0.36540   0.40779
 Alpha virt. eigenvalues --    0.41912   0.41917   0.43693   0.46840   0.47028
 Alpha virt. eigenvalues --    0.50672   0.50684   0.53794   0.53800   0.54349
 Alpha virt. eigenvalues --    0.60226   0.60230   0.64033   0.64039   0.67386
 Alpha virt. eigenvalues --    0.67391   0.67433   0.72714   0.72741   0.74138
 Alpha virt. eigenvalues --    0.74433   0.77494   0.77516   0.83867   0.89606
 Alpha virt. eigenvalues --    1.02573   1.02587   1.15471   1.24558   1.24562
 Alpha virt. eigenvalues --    1.25196   1.26997   1.27006   1.30747   1.30752
 Alpha virt. eigenvalues --    1.51633   1.64573   1.65146   1.67022   1.74474
 Alpha virt. eigenvalues --    1.75848   1.75866   1.75898   1.75927   1.76046
 Alpha virt. eigenvalues --    1.76070   1.82721   1.82726   1.93620   1.98895
 Alpha virt. eigenvalues --    1.98908   1.99372   1.99760   1.99763   2.10699
 Alpha virt. eigenvalues --    2.14427   2.14431   2.15415   2.30489   2.30532
 Alpha virt. eigenvalues --    2.32042   2.32050   2.35845   2.35882   2.57277
 Alpha virt. eigenvalues --    2.61030   2.61046   2.65494   2.74090   2.74101
 Alpha virt. eigenvalues --    2.74129   2.87694   2.87723   2.90550   3.14241
 Alpha virt. eigenvalues --    3.14283   3.26710   3.68403
          Condensed to atoms (all electrons):
               1          2          3          4          5          6
     1  C    5.104947   0.442640   0.245515  -0.076909   0.114631   0.016017
     2  H    0.442640   0.732826  -0.076908  -0.014428   0.016017  -0.000335
     3  C    0.245515  -0.076908   5.104927   0.442572   0.245547  -0.076898
     4  H   -0.076909  -0.014428   0.442572   0.732807  -0.076899  -0.014426
     5  C    0.114631   0.016017   0.245547  -0.076899   5.104945   0.442625
     6  H    0.016017  -0.000335  -0.076898  -0.014426   0.442625   0.732820
     7  C   -0.166305  -0.001897   0.114617   0.016031   0.245359  -0.076949
     8  H   -0.001897   0.000039   0.016025  -0.000335  -0.076950  -0.014439
     9  C    0.114618   0.016025  -0.166319  -0.001894   0.114618   0.016026
    10  H    0.016031  -0.000335  -0.001894   0.000039   0.016032  -0.000336
    11  C    0.245358  -0.076950   0.114618   0.016032  -0.166306  -0.001897
    12  H   -0.076950  -0.014440   0.016027  -0.000336  -0.001897   0.000039
               7          8          9         10         11         12
     1  C   -0.166305  -0.001897   0.114618   0.016031   0.245358  -0.076950
     2  H   -0.001897   0.000039   0.016025  -0.000335  -0.076950  -0.014440
     3  C    0.114617   0.016025  -0.166319  -0.001894   0.114618   0.016027
     4  H    0.016031  -0.000335  -0.001894   0.000039   0.016032  -0.000336
     5  C    0.245359  -0.076950   0.114618   0.016032  -0.166306  -0.001897
     6  H   -0.076949  -0.014439   0.016026  -0.000336  -0.001897   0.000039
     7  C    5.104949   0.442639   0.245514  -0.076909   0.114631   0.016017
     8  H    0.442639   0.732824  -0.076907  -0.014428   0.016016  -0.000335
     9  C    0.245514  -0.076907   5.104926   0.442572   0.245548  -0.076899
    10  H   -0.076909  -0.014428   0.442572   0.732808  -0.076899  -0.014426
    11  C    0.114631   0.016016   0.245548  -0.076899   5.104941   0.442627
    12  H    0.016017  -0.000335  -0.076899  -0.014426   0.442627   0.732823
 Mulliken charges:
               1
     1  C    0.022304
     2  H   -0.022254
     3  C    0.022173
     4  H   -0.022254
     5  C    0.022278
     6  H   -0.022248
     7  C    0.022302
     8  H   -0.022251
     9  C    0.022174
    10  H   -0.022254
    11  C    0.022282
    12  H   -0.022252
 Sum of Mulliken charges =   0.00000
 Mulliken charges with hydrogens summed into heavy atoms:
               1
     1  C    0.000050
     3  C   -0.000080
     5  C    0.000030
     7  C    0.000051
     9  C   -0.000081
    11  C    0.000030
 Electronic spatial extent (au):  <R**2>=            457.7159
 Charge=              0.0000 electrons
 Dipole moment (field-independent basis, Debye):
    X=              0.0000    Y=              0.0000    Z=             -0.0052  Tot=              0.0052
 Quadrupole moment (field-independent basis, Debye-Ang):
   XX=            -32.1592   YY=            -32.1567   ZZ=            -38.9884
   XY=              0.0004   XZ=              0.0000   YZ=              0.0000
 Traceless Quadrupole moment (field-independent basis, Debye-Ang):
   XX=              2.2755   YY=              2.2781   ZZ=             -4.5536
   XY=              0.0004   XZ=              0.0000   YZ=              0.0000
 Octapole moment (field-independent basis, Debye-Ang**2):
  XXX=              0.0004  YYY=             -0.0002  ZZZ=             -2.5886  XYY=              0.0001
  XXY=             -0.0001  XXZ=             -0.7206  XZZ=              0.0002  YZZ=             -0.0001
  YYZ=             -0.7422  XYZ=             -0.0033
 Hexadecapole moment (field-independent basis, Debye-Ang**3):
 XXXX=           -275.3075 YYYY=           -275.4006 ZZZZ=            -42.8577 XXXY=             -0.0087
 XXXZ=             -0.0002 YYYX=             -0.0092 YYYZ=              0.0001 ZZZX=             -0.0004
 ZZZY=              0.0001 XXYY=            -91.7830 XXZZ=            -61.3029 YYZZ=            -61.3213
 XXYZ=              0.0000 YYXZ=             -0.0001 ZZXY=             -0.0034
 N-N= 2.037422805550D+02 E-N=-9.438920855953D+02  KE= 2.294890883969D+02
 1\1\GINC-TANATOS\SP\RB3LYP\def2SVP\C6H6\RUBEN\04-Jan-2020\0\\# nosymme
 try b3lyp def2svp int=grid=ultrafine output=wfn\\benzene\\0,1\C,0,0.83
 5517177,1.115166934,0.021401313\H,0,1.484323978,1.98060858,0.019534297
 \C,0,1.383274965,-0.166147213,0.023765306\H,0,2.457149016,-0.295204681
 ,0.022771076\C,0,0.547554655,-1.28131632,0.021685625\H,0,0.972936101,-
 2.275804531,0.019778528\C,0,-0.835523128,-1.11516159,0.021399074\H,0,-
 1.484334187,-1.980606395,0.019530093\C,0,-1.383283584,0.166154134,0.02
 3757746\H,0,-2.457156177,0.295209058,0.022757066\C,0,-0.547565766,1.28
 1323471,0.021680249\H,0,-0.972942841,2.275805478,0.019768726\\Version=
 EM64L-G09RevD.01\HF=-232.0840148\RMSD=7.626e-09\Dipole=-0.0000005,0.00
 00027,-0.0020516\Quadrupole=1.6918101,1.6937002,-3.3855103,0.0003169,0
 .0000143,-0.000005\PG=C01 [X(C6H6)]\\@

 Writing a WFN file to "benzene.wfn"


 MOST BUREAUCRACIES FUNCTION LIKE A SEPTIC TANK.
 THE LARGE CHUNKS RISE TO THE TOP.
 Job cpu time:       0 days  0 hours  0 minutes 40.8 seconds.
 File lengths (MBytes):  RWF=      7 Int=      0 D2E=      0 Chk=      2 Scr=      1
 Normal termination of Gaussian 09 at Sat Jan  4 17:10:17 2020.
