 ethene-benzene
GAUSSIAN             29 MOL ORBITALS    270 PRIMITIVES       18 NUCLEI
  C    1    (CENTRE  1)   1.23924574 -0.22070202  6.67215383  CHARGE =  6.0
  H    2    (CENTRE  2)   1.97899939 -2.12388079  6.66371003  CHARGE =  1.0
  H    3    (CENTRE  3)   2.59053935  1.31009704  6.66364707  CHARGE =  1.0
  C    4    (CENTRE  4)  -1.23923689  0.22070518  6.67217064  CHARGE =  6.0
  H    5    (CENTRE  5)  -2.59052704 -1.31009491  6.66367426  CHARGE =  1.0
  H    6    (CENTRE  6)  -1.97899496  2.12388408  6.66374586  CHARGE =  1.0
  C    7    (CENTRE  7)   1.57889864  2.10736010  0.04044262  CHARGE =  6.0
  H    8    (CENTRE  8)   2.80496581  3.74280779  0.03691447  CHARGE =  1.0
  C    9    (CENTRE  9)   2.61401085 -0.31397273  0.04490992  CHARGE =  6.0
  H   10    (CENTRE 10)   4.64333871 -0.55785600  0.04303110  CHARGE =  1.0
  C   11    (CENTRE 11)   1.03472834 -2.42133693  0.04097989  CHARGE =  6.0
  H   12    (CENTRE 12)   1.83858278 -4.30064730  0.03737600  CHARGE =  1.0
  C   13    (CENTRE 13)  -1.57890989 -2.10735000  0.04043839  CHARGE =  6.0
  H   14    (CENTRE 14)  -2.80498510 -3.74280366  0.03690653  CHARGE =  1.0
  C   15    (CENTRE 15)  -2.61402714  0.31398581  0.04489563  CHARGE =  6.0
  H   16    (CENTRE 16)  -4.64335224  0.55786427  0.04300462  CHARGE =  1.0
  C   17    (CENTRE 17)  -1.03474934  2.42135045  0.04096973  CHARGE =  6.0
  H   18    (CENTRE 18)  -1.83859551  4.30064909  0.03735748  CHARGE =  1.0
CENTRE ASSIGNMENTS    1  1  1  1  1  1  1  1  1  1  1  1  1  1  1  1  1  1  1  1
CENTRE ASSIGNMENTS    1  1  1  1  1  2  2  2  2  2  2  2  3  3  3  3  3  3  3  4
CENTRE ASSIGNMENTS    4  4  4  4  4  4  4  4  4  4  4  4  4  4  4  4  4  4  4  4
CENTRE ASSIGNMENTS    4  4  4  4  5  5  5  5  5  5  5  6  6  6  6  6  6  6  7  7
CENTRE ASSIGNMENTS    7  7  7  7  7  7  7  7  7  7  7  7  7  7  7  7  7  7  7  7
CENTRE ASSIGNMENTS    7  7  7  8  8  8  8  8  8  8  9  9  9  9  9  9  9  9  9  9
CENTRE ASSIGNMENTS    9  9  9  9  9  9  9  9  9  9  9  9  9  9  9 10 10 10 10 10
CENTRE ASSIGNMENTS   10 10 11 11 11 11 11 11 11 11 11 11 11 11 11 11 11 11 11 11
CENTRE ASSIGNMENTS   11 11 11 11 11 11 11 12 12 12 12 12 12 12 13 13 13 13 13 13
CENTRE ASSIGNMENTS   13 13 13 13 13 13 13 13 13 13 13 13 13 13 13 13 13 13 13 14
CENTRE ASSIGNMENTS   14 14 14 14 14 14 15 15 15 15 15 15 15 15 15 15 15 15 15 15
CENTRE ASSIGNMENTS   15 15 15 15 15 15 15 15 15 15 15 16 16 16 16 16 16 16 17 17
CENTRE ASSIGNMENTS   17 17 17 17 17 17 17 17 17 17 17 17 17 17 17 17 17 17 17 17
CENTRE ASSIGNMENTS   17 17 17 18 18 18 18 18 18 18
TYPE ASSIGNMENTS      1  1  1  1  1  1  1  2  2  2  3  3  3  4  4  4  2  3  4  5
TYPE ASSIGNMENTS      6  7  8  9 10  1  1  1  1  2  3  4  1  1  1  1  2  3  4  1
TYPE ASSIGNMENTS      1  1  1  1  1  1  2  2  2  3  3  3  4  4  4  2  3  4  5  6
TYPE ASSIGNMENTS      7  8  9 10  1  1  1  1  2  3  4  1  1  1  1  2  3  4  1  1
TYPE ASSIGNMENTS      1  1  1  1  1  2  2  2  3  3  3  4  4  4  2  3  4  5  6  7
TYPE ASSIGNMENTS      8  9 10  1  1  1  1  2  3  4  1  1  1  1  1  1  1  2  2  2
TYPE ASSIGNMENTS      3  3  3  4  4  4  2  3  4  5  6  7  8  9 10  1  1  1  1  2
TYPE ASSIGNMENTS      3  4  1  1  1  1  1  1  1  2  2  2  3  3  3  4  4  4  2  3
TYPE ASSIGNMENTS      4  5  6  7  8  9 10  1  1  1  1  2  3  4  1  1  1  1  1  1
TYPE ASSIGNMENTS      1  2  2  2  3  3  3  4  4  4  2  3  4  5  6  7  8  9 10  1
TYPE ASSIGNMENTS      1  1  1  2  3  4  1  1  1  1  1  1  1  2  2  2  3  3  3  4
TYPE ASSIGNMENTS      4  4  2  3  4  5  6  7  8  9 10  1  1  1  1  2  3  4  1  1
TYPE ASSIGNMENTS      1  1  1  1  1  2  2  2  3  3  3  4  4  4  2  3  4  5  6  7
TYPE ASSIGNMENTS      8  9 10  1  1  1  1  2  3  4
EXPONENTS  0.1238402D+04 0.1862900D+03 0.4225118D+02 0.1167656D+02 0.3593051D+01
EXPONENTS  0.4024515D+00 0.1309018D+00 0.9468097D+01 0.2010355D+01 0.5477100D+00
EXPONENTS  0.9468097D+01 0.2010355D+01 0.5477100D+00 0.9468097D+01 0.2010355D+01
EXPONENTS  0.5477100D+00 0.1526861D+00 0.1526861D+00 0.1526861D+00 0.8000000D+00
EXPONENTS  0.8000000D+00 0.8000000D+00 0.8000000D+00 0.8000000D+00 0.8000000D+00
EXPONENTS  0.1301070D+02 0.1962257D+01 0.4445380D+00 0.1219496D+00 0.8000000D+00
EXPONENTS  0.8000000D+00 0.8000000D+00 0.1301070D+02 0.1962257D+01 0.4445380D+00
EXPONENTS  0.1219496D+00 0.8000000D+00 0.8000000D+00 0.8000000D+00 0.1238402D+04
EXPONENTS  0.1862900D+03 0.4225118D+02 0.1167656D+02 0.3593051D+01 0.4024515D+00
EXPONENTS  0.1309018D+00 0.9468097D+01 0.2010355D+01 0.5477100D+00 0.9468097D+01
EXPONENTS  0.2010355D+01 0.5477100D+00 0.9468097D+01 0.2010355D+01 0.5477100D+00
EXPONENTS  0.1526861D+00 0.1526861D+00 0.1526861D+00 0.8000000D+00 0.8000000D+00
EXPONENTS  0.8000000D+00 0.8000000D+00 0.8000000D+00 0.8000000D+00 0.1301070D+02
EXPONENTS  0.1962257D+01 0.4445380D+00 0.1219496D+00 0.8000000D+00 0.8000000D+00
EXPONENTS  0.8000000D+00 0.1301070D+02 0.1962257D+01 0.4445380D+00 0.1219496D+00
EXPONENTS  0.8000000D+00 0.8000000D+00 0.8000000D+00 0.1238402D+04 0.1862900D+03
EXPONENTS  0.4225118D+02 0.1167656D+02 0.3593051D+01 0.4024515D+00 0.1309018D+00
EXPONENTS  0.9468097D+01 0.2010355D+01 0.5477100D+00 0.9468097D+01 0.2010355D+01
EXPONENTS  0.5477100D+00 0.9468097D+01 0.2010355D+01 0.5477100D+00 0.1526861D+00
EXPONENTS  0.1526861D+00 0.1526861D+00 0.8000000D+00 0.8000000D+00 0.8000000D+00
EXPONENTS  0.8000000D+00 0.8000000D+00 0.8000000D+00 0.1301070D+02 0.1962257D+01
EXPONENTS  0.4445380D+00 0.1219496D+00 0.8000000D+00 0.8000000D+00 0.8000000D+00
EXPONENTS  0.1238402D+04 0.1862900D+03 0.4225118D+02 0.1167656D+02 0.3593051D+01
EXPONENTS  0.4024515D+00 0.1309018D+00 0.9468097D+01 0.2010355D+01 0.5477100D+00
EXPONENTS  0.9468097D+01 0.2010355D+01 0.5477100D+00 0.9468097D+01 0.2010355D+01
EXPONENTS  0.5477100D+00 0.1526861D+00 0.1526861D+00 0.1526861D+00 0.8000000D+00
EXPONENTS  0.8000000D+00 0.8000000D+00 0.8000000D+00 0.8000000D+00 0.8000000D+00
EXPONENTS  0.1301070D+02 0.1962257D+01 0.4445380D+00 0.1219496D+00 0.8000000D+00
EXPONENTS  0.8000000D+00 0.8000000D+00 0.1238402D+04 0.1862900D+03 0.4225118D+02
EXPONENTS  0.1167656D+02 0.3593051D+01 0.4024515D+00 0.1309018D+00 0.9468097D+01
EXPONENTS  0.2010355D+01 0.5477100D+00 0.9468097D+01 0.2010355D+01 0.5477100D+00
EXPONENTS  0.9468097D+01 0.2010355D+01 0.5477100D+00 0.1526861D+00 0.1526861D+00
EXPONENTS  0.1526861D+00 0.8000000D+00 0.8000000D+00 0.8000000D+00 0.8000000D+00
EXPONENTS  0.8000000D+00 0.8000000D+00 0.1301070D+02 0.1962257D+01 0.4445380D+00
EXPONENTS  0.1219496D+00 0.8000000D+00 0.8000000D+00 0.8000000D+00 0.1238402D+04
EXPONENTS  0.1862900D+03 0.4225118D+02 0.1167656D+02 0.3593051D+01 0.4024515D+00
EXPONENTS  0.1309018D+00 0.9468097D+01 0.2010355D+01 0.5477100D+00 0.9468097D+01
EXPONENTS  0.2010355D+01 0.5477100D+00 0.9468097D+01 0.2010355D+01 0.5477100D+00
EXPONENTS  0.1526861D+00 0.1526861D+00 0.1526861D+00 0.8000000D+00 0.8000000D+00
EXPONENTS  0.8000000D+00 0.8000000D+00 0.8000000D+00 0.8000000D+00 0.1301070D+02
EXPONENTS  0.1962257D+01 0.4445380D+00 0.1219496D+00 0.8000000D+00 0.8000000D+00
EXPONENTS  0.8000000D+00 0.1238402D+04 0.1862900D+03 0.4225118D+02 0.1167656D+02
EXPONENTS  0.3593051D+01 0.4024515D+00 0.1309018D+00 0.9468097D+01 0.2010355D+01
EXPONENTS  0.5477100D+00 0.9468097D+01 0.2010355D+01 0.5477100D+00 0.9468097D+01
EXPONENTS  0.2010355D+01 0.5477100D+00 0.1526861D+00 0.1526861D+00 0.1526861D+00
EXPONENTS  0.8000000D+00 0.8000000D+00 0.8000000D+00 0.8000000D+00 0.8000000D+00
EXPONENTS  0.8000000D+00 0.1301070D+02 0.1962257D+01 0.4445380D+00 0.1219496D+00
EXPONENTS  0.8000000D+00 0.8000000D+00 0.8000000D+00 0.1238402D+04 0.1862900D+03
EXPONENTS  0.4225118D+02 0.1167656D+02 0.3593051D+01 0.4024515D+00 0.1309018D+00
EXPONENTS  0.9468097D+01 0.2010355D+01 0.5477100D+00 0.9468097D+01 0.2010355D+01
EXPONENTS  0.5477100D+00 0.9468097D+01 0.2010355D+01 0.5477100D+00 0.1526861D+00
EXPONENTS  0.1526861D+00 0.1526861D+00 0.8000000D+00 0.8000000D+00 0.8000000D+00
EXPONENTS  0.8000000D+00 0.8000000D+00 0.8000000D+00 0.1301070D+02 0.1962257D+01
EXPONENTS  0.4445380D+00 0.1219496D+00 0.8000000D+00 0.8000000D+00 0.8000000D+00
MO    1     MO 0.0        OCC NO =    2.0000000  ORB. ENERGY =  -10.187479
 -0.38719234D-02 -0.69649000D-02 -0.10153239D-01 -0.99436283D-02 -0.39106208D-02
 -0.51239627D-03  0.37261833D-03  0.14235424D-04  0.11286818D-04  0.53999801D-05
 -0.55975115D-05 -0.44380903D-05 -0.21233264D-05  0.70100200D-03  0.55580237D-03
  0.26591389D-03  0.56602671D-04 -0.73061836D-05 -0.14964145D-03  0.70550341D-04
  0.45477880D-04 -0.11602822D-03 -0.88824272D-05 -0.16846478D-03  0.29645754D-04
 -0.63884347D-04 -0.10837593D-03 -0.12338030D-03 -0.63514345D-04 -0.10812293D-04
 -0.26574927D-05  0.18918811D-03 -0.66170967D-04 -0.11225505D-03 -0.12779646D-03
 -0.62362871D-04 -0.94860193D-05  0.32589765D-05  0.18657127D-03 -0.38790758D-02
 -0.69777660D-02 -0.10171995D-01 -0.99619968D-02 -0.39178447D-02 -0.51390932D-03
  0.37735497D-03 -0.14114961D-04 -0.11191308D-04 -0.53542848D-05  0.55801722D-05
  0.44243425D-05  0.21167490D-05  0.70256289D-03  0.55703995D-03  0.26650599D-03
 -0.55189687D-04  0.70554800D-05 -0.15045965D-03  0.70853425D-04  0.45850199D-04
 -0.11670362D-03 -0.88551670D-05  0.16783782D-03 -0.29530766D-04 -0.66421433D-04
 -0.11267995D-03 -0.12828019D-03 -0.62533043D-04  0.91426508D-05 -0.29923340D-05
  0.18731529D-03 -0.64130847D-04 -0.10879411D-03 -0.12385636D-03 -0.63696440D-04
  0.10397673D-04  0.25349255D-05  0.18994205D-03  0.22514763D+00  0.40500046D+00
  0.59039852D+00  0.57820988D+00  0.22739784D+00  0.35593094D-02  0.12488587D-04
  0.15679857D-03  0.12432064D-03  0.59479027D-04  0.16479284D-02  0.13065904D-02
  0.62511527D-03  0.16428369D-03  0.13025535D-03  0.62318389D-04 -0.22490496D-04
 -0.22292414D-03 -0.18406328D-04  0.47967533D-05 -0.18687769D-03  0.18208094D-03
  0.15825025D-02 -0.16655260D-04 -0.39930721D-04 -0.17082853D-03 -0.28980028D-03
 -0.32992237D-03  0.21555370D-03  0.41317090D-03  0.44157587D-03  0.39402215D-04
  0.46837022D+00  0.84251454D+00  0.12281945D+01  0.12028387D+01  0.47305128D+00
  0.91724444D-02 -0.26852366D-02  0.12064810D-02  0.95658069D-03  0.45765925D-03
 -0.82678136D-04 -0.65552886D-04 -0.31362628D-04  0.21176452D-03  0.16790140D-03
  0.80329481D-04  0.23381748D-03 -0.35837685D-04 -0.42322525D-04  0.11477808D-02
 -0.24235634D-03 -0.90542451D-03 -0.38745507D-03 -0.32455376D-04  0.24204213D-05
 -0.44125460D-03 -0.74856176D-03 -0.85219817D-03  0.52681899D-03  0.16701206D-02
 -0.20632340D-03  0.61972082D-04  0.24182008D+00  0.43499122D+00  0.63411822D+00
  0.62102700D+00  0.24423691D+00  0.39456847D-02 -0.17472946D-03 -0.30125687D-03
 -0.23885707D-03 -0.11427697D-03 -0.16483822D-02 -0.13069503D-02 -0.62528743D-03
  0.16867934D-03  0.13374053D-03  0.63985810D-04  0.51501821D-04  0.19684371D-03
 -0.20582175D-04 -0.31527288D-03  0.20760943D-03  0.10766345D-03 -0.15245177D-02
 -0.52170859D-05  0.43251546D-04 -0.18970849D-03 -0.32182898D-03 -0.36638536D-03
  0.23672602D-03  0.33072140D-03 -0.59288753D-03  0.41419582D-04  0.22552067D+00
  0.40567149D+00  0.59137673D+00  0.57916790D+00  0.22777461D+00  0.35661297D-02
  0.14225555D-04 -0.15293542D-03 -0.12125767D-03 -0.58013604D-04 -0.16528219D-02
 -0.13104703D-02 -0.62697154D-03  0.16463867D-03  0.13053680D-03  0.62453044D-04
  0.23942718D-04  0.22112233D-03 -0.18500056D-04  0.63138148D-05 -0.18930203D-03
  0.18298822D-03  0.15854557D-02  0.16451130D-04  0.40077264D-04 -0.17138936D-03
 -0.29075169D-03 -0.33100550D-03  0.21539161D-03 -0.41525575D-03 -0.44104446D-03
  0.39526254D-04  0.46994374D+00  0.84534503D+00  0.12323207D+01  0.12068797D+01
  0.47464053D+00  0.92062913D-02 -0.26912825D-02 -0.12077847D-02 -0.95761438D-03
 -0.45815380D-03  0.82551810D-04  0.65452726D-04  0.31314708D-04  0.21249121D-03
  0.16847758D-03  0.80605141D-04 -0.23552190D-03  0.35941351D-04 -0.42494062D-04
  0.11508622D-02 -0.24211411D-03 -0.90874813D-03 -0.38835001D-03  0.32495198D-04
 -0.24096200D-05 -0.44316345D-03 -0.75180001D-03 -0.85588474D-03  0.52795474D-03
 -0.16759112D-02  0.20710704D-03  0.62197336D-04  0.24228842D+00  0.43583368D+00
  0.63534633D+00  0.62222976D+00  0.24470993D+00  0.39545214D-02 -0.17322695D-03
  0.30586519D-03  0.24251086D-03  0.11602507D-03  0.16522583D-02  0.13100235D-02
  0.62675774D-03  0.16909910D-03  0.13407334D-03  0.64145039D-04 -0.49802095D-04
 -0.19537235D-03 -0.20692326D-04 -0.31478633D-03  0.20632341D-03  0.10846291D-03
 -0.15289532D-02  0.50005399D-05 -0.43344723D-04 -0.19039526D-03 -0.32299406D-03
 -0.36771174D-03  0.23661932D-03 -0.33291143D-03  0.59318105D-03  0.41564959D-04
MO    2     MO 0.0        OCC NO =    2.0000000  ORB. ENERGY =  -10.187425
 -0.24515683D-02 -0.44099345D-02 -0.64286810D-02 -0.62959625D-02 -0.24760702D-02
 -0.52100739D-03  0.16271225D-02 -0.38984065D-04 -0.30909235D-04 -0.14787981D-04
  0.42824522D-05  0.33954213D-05  0.16244797D-05  0.53789198D-03  0.42647758D-03
  0.20404072D-03 -0.48514032D-03  0.86377832D-04 -0.28239107D-03  0.10311936D-03
  0.12766696D-03 -0.23078632D-03  0.10759657D-04  0.21367120D-03 -0.38874251D-04
 -0.84798486D-04 -0.14385551D-03 -0.16377192D-03 -0.62551520D-04  0.14241651D-03
  0.41874871D-04  0.25944433D-03 -0.86557808D-04 -0.14684009D-03 -0.16716972D-03
 -0.58138319D-04  0.11841756D-03 -0.91781874D-04  0.25573127D-03  0.24399229D-02
  0.43889864D-02  0.63981436D-02  0.62660555D-02  0.24643084D-02  0.51946567D-03
 -0.16260175D-02 -0.39055367D-04 -0.30965768D-04 -0.14815028D-04  0.43052342D-05
  0.34134843D-05  0.16331217D-05 -0.53578828D-03 -0.42480962D-03 -0.20324271D-03
 -0.48529050D-03  0.86397350D-04  0.28194823D-03 -0.10290007D-03 -0.12753854D-03
  0.23043860D-03 -0.10791374D-04  0.21417707D-03 -0.38965975D-04  0.86362094D-04
  0.14650807D-03  0.16679173D-03  0.57961325D-04  0.11843733D-03 -0.91776048D-04
 -0.25517526D-03  0.84608946D-04  0.14353396D-03  0.16340586D-03  0.62369027D-04
  0.14243593D-03  0.41871861D-04 -0.25888019D-03  0.13213431D+00  0.23768607D+00
  0.34649220D+00  0.33933895D+00  0.13345490D+00  0.24355639D-02  0.56575414D-03
 -0.13144478D-02 -0.10421842D-02 -0.49861474D-03  0.16704751D-02  0.13244670D-02
  0.63366800D-03  0.12220902D-03  0.96895680D-04  0.46358038D-04 -0.48882656D-03
  0.61223979D-03 -0.32135519D-04  0.51691858D-03 -0.81050321D-03  0.29358463D-03
  0.10109662D-02  0.68904139D-04 -0.47899079D-04 -0.19710621D-03 -0.33437878D-03
 -0.38067264D-03 -0.48868256D-04  0.71942467D-03 -0.16610172D-03  0.43363361D-04
  0.53579508D+00  0.96379985D+00  0.14050009D+01  0.13759950D+01  0.54115001D+00
  0.11519625D-01 -0.20524044D-02  0.44600295D-03  0.35362167D-03  0.16918408D-03
  0.28223186D-04  0.22377274D-04  0.10706014D-04  0.25538861D-03  0.20248957D-03
  0.96877583D-04  0.58272359D-03 -0.43224135D-04 -0.59400353D-04  0.10468908D-02
  0.73524927D-04 -0.11204158D-02 -0.30056240D-03 -0.53400119D-05 -0.54573914D-05
 -0.64951674D-03 -0.11018659D-02 -0.12544163D-02  0.38407205D-03  0.19702082D-02
 -0.26227743D-03  0.82040439D-04  0.15983013D+00  0.28750591D+00  0.41911819D+00
  0.41046560D+00  0.16142752D+00  0.30225329D-02  0.49167322D-03 -0.15842828D-02
 -0.12561279D-02 -0.60097235D-03 -0.13135207D-02 -0.10414491D-02 -0.49826305D-03
  0.14641985D-03  0.11609168D-03  0.55542028D-04 -0.58156616D-03 -0.50046503D-03
 -0.38029107D-04  0.17906413D-03 -0.44161195D-03  0.26254782D-03 -0.15171928D-02
  0.74801539D-04  0.29397477D-04 -0.23203045D-03 -0.39362564D-03 -0.44812208D-03
 -0.34286128D-04  0.75195943D-03 -0.10699710D-03  0.51295654D-04 -0.13141857D+00
 -0.23639858D+00 -0.34461534D+00 -0.33750084D+00 -0.13273201D+00 -0.24239538D-02
 -0.56616677D-03 -0.13152003D-02 -0.10427808D-02 -0.49890019D-03  0.16657908D-02
  0.13207530D-02  0.63189110D-03 -0.12172351D-03 -0.96510728D-04 -0.46173865D-04
 -0.48878264D-03  0.61283977D-03  0.32076299D-04 -0.51694015D-03  0.81017878D-03
 -0.29323863D-03 -0.10063392D-02  0.68954235D-04 -0.47786304D-04  0.19654731D-03
  0.33343063D-03  0.37959322D-03  0.49568125D-04  0.71811101D-03 -0.16758389D-03
 -0.43240624D-04 -0.53446493D+00 -0.96140715D+00 -0.14015129D+01 -0.13725790D+01
 -0.53980657D+00 -0.11493797D-01  0.20450978D-02  0.44236724D-03  0.35073903D-03
  0.16780494D-03  0.28529421D-04  0.22620078D-04  0.10822180D-04 -0.25474449D-03
 -0.20197887D-03 -0.96633245D-04  0.58212672D-03 -0.43113957D-04  0.59275159D-04
 -0.10436190D-02 -0.74413202D-04  0.11180322D-02  0.29942355D-03 -0.52677700D-05
 -0.54578432D-05  0.64827796D-03  0.10997644D-02  0.12520239D-02 -0.38259094D-03
  0.19655197D-02 -0.26170580D-03 -0.81840548D-04 -0.15908019D+00 -0.28615691D+00
 -0.41715166D+00 -0.40853967D+00 -0.16067009D+00 -0.30101062D-02 -0.49246319D-03
 -0.15837687D-02 -0.12557202D-02 -0.60077732D-03 -0.13088035D-02 -0.10377090D-02
 -0.49647366D-03 -0.14591575D-03 -0.11569200D-03 -0.55350806D-04 -0.58166307D-03
 -0.50098589D-03  0.37964135D-04 -0.18005339D-03  0.44240280D-03 -0.26234941D-03
  0.15128406D-02  0.74813499D-04  0.29272117D-04  0.23143474D-03  0.39261504D-03
  0.44697156D-03  0.35029345D-04  0.75094320D-03 -0.10508847D-03 -0.51166292D-04
MO    3     MO 0.0        OCC NO =    2.0000000  ORB. ENERGY =  -10.187075
  0.98310225D-04  0.17684257D-03  0.25779623D-03  0.25247409D-03  0.99292772D-04
  0.21183703D-04 -0.82687560D-04 -0.25769261D-04 -0.20431634D-04 -0.97751570D-05
 -0.14818005D-03 -0.11748728D-03 -0.56209730D-04 -0.21428689D-04 -0.16990131D-04
 -0.81286302D-05  0.42064633D-04  0.49232815D-04  0.10891443D-04  0.23341683D-04
 -0.34472477D-04  0.11130794D-04  0.17313849D-03 -0.20202033D-04 -0.50091822D-04
  0.53201125D-04  0.90252493D-04  0.10274771D-03 -0.32079714D-04 -0.66830619D-04
 -0.36573621D-04  0.20171040D-04 -0.46924745D-04 -0.79604994D-04 -0.90626097D-04
  0.31366759D-04  0.37514648D-04 -0.40934121D-04 -0.38497682D-04 -0.98355976D-04
 -0.17692487D-03 -0.25791620D-03 -0.25259158D-03 -0.99338980D-04 -0.21188825D-04
  0.82680029D-04 -0.25786624D-04 -0.20445400D-04 -0.97817431D-05 -0.14820715D-03
 -0.11750877D-03 -0.56220010D-04  0.21433137D-04  0.16993658D-04  0.81303176D-05
  0.42076274D-04  0.49258491D-04 -0.10892123D-04 -0.23339256D-04  0.34469721D-04
 -0.11130465D-04 -0.17314789D-03 -0.20206514D-04 -0.50091942D-04  0.46938222D-04
  0.79627857D-04  0.90652125D-04 -0.31369052D-04  0.37508698D-04 -0.40939241D-04
  0.38507590D-04 -0.53211826D-04 -0.90270647D-04 -0.10276838D-03  0.32089454D-04
 -0.66837268D-04 -0.36591748D-04 -0.20179627D-04  0.38673997D+00  0.69567628D+00
  0.10141377D+01  0.99320110D+00  0.39060519D+00  0.77990480D-02 -0.24868334D-03
  0.13982086D-02  0.11085955D-02  0.53038808D-03 -0.99673259D-04 -0.79027782D-04
 -0.37809456D-04  0.27518871D-04  0.21818845D-04  0.10438844D-04  0.65498228D-03
  0.15623507D-05 -0.48958383D-05 -0.34224683D-03  0.78352569D-03 -0.44127886D-03
  0.63725341D-03 -0.11435368D-04 -0.26422891D-05 -0.50740734D-03 -0.86078589D-03
 -0.97995944D-03  0.14651873D-03  0.42475708D-03  0.12631029D-02  0.55595792D-05
  0.30689723D-01  0.55205342D-01  0.80476828D-01  0.78815403D-01  0.30996447D-01
  0.71961663D-03 -0.32116274D-03 -0.33395700D-03 -0.26478397D-03 -0.12668124D-03
 -0.23996125D-02 -0.19025770D-02 -0.91025461D-03 -0.82646116D-05 -0.65527498D-05
 -0.31350482D-05 -0.95286095D-04 -0.10939760D-02  0.13283607D-05  0.30139794D-03
 -0.13553689D-03 -0.16586106D-03  0.18220655D-02  0.35275083D-05  0.27230549D-04
 -0.32202430D-04 -0.54629477D-04 -0.62192784D-04  0.44301912D-04  0.24783795D-03
  0.84888591D-03 -0.24296178D-05 -0.42272382D+00 -0.76040480D+00 -0.11084972D+01
 -0.10856125D+01 -0.42694867D+00 -0.87466705D-02  0.90111246D-03 -0.13961394D-02
 -0.11069549D-02 -0.52960314D-03  0.68414579D-04  0.54243761D-04  0.25951976D-04
 -0.38954466D-04 -0.30885767D-04 -0.14776754D-04 -0.70193523D-03  0.18639068D-03
  0.93247329D-05  0.28596444D-03 -0.10109599D-02  0.72499543D-03 -0.37960040D-04
  0.51255391D-05 -0.81492946D-05  0.53771613D-03  0.91220292D-03  0.10384950D-02
 -0.22552829D-03 -0.16439343D-03  0.15305864D-02 -0.97188967D-05 -0.38679182D+00
 -0.69576953D+00 -0.10142737D+01 -0.99333423D+00 -0.39065755D+00 -0.78002400D-02
  0.24925043D-03  0.13977307D-02  0.11082166D-02  0.53020677D-03 -0.99407993D-04
 -0.78817462D-04 -0.37708832D-04 -0.27514274D-04 -0.21815200D-04 -0.10437100D-04
  0.65508069D-03  0.15998462D-05  0.49012906D-05  0.34190356D-03 -0.78343302D-03
  0.44152946D-03 -0.63732621D-03 -0.11433720D-04 -0.26430351D-05  0.50746122D-03
  0.86087729D-03  0.98006349D-03 -0.14658386D-03  0.42493880D-03  0.12632726D-02
 -0.55609379D-05 -0.30728643D-01 -0.55275351D-01 -0.80578885D-01 -0.78915354D-01
 -0.31035756D-01 -0.72053806D-03  0.32159740D-03 -0.33408337D-03 -0.26488416D-03
 -0.12672918D-03 -0.24001930D-02 -0.19030373D-02 -0.91047481D-03  0.82671769D-05
  0.65547837D-05  0.31360213D-05 -0.95212631D-04 -0.10939053D-02 -0.13259740D-05
 -0.30154322D-03  0.13549003D-03  0.16605319D-03 -0.18224853D-02  0.35273653D-05
  0.27226847D-04  0.32247243D-04  0.54705499D-04  0.62279332D-04 -0.44355968D-04
  0.24802379D-03  0.84891029D-03  0.24287027D-05  0.42282544D+00  0.76058760D+00
  0.11087637D+01  0.10858735D+01  0.42705131D+00  0.87489981D-02 -0.90215185D-03
 -0.13960834D-02 -0.11069105D-02 -0.52958192D-03  0.68403581D-04  0.54235041D-04
  0.25947804D-04  0.38952042D-04  0.30883845D-04  0.14775834D-04 -0.70198850D-03
  0.18652961D-03 -0.93319363D-05 -0.28575799D-03  0.10112046D-02 -0.72544663D-03
  0.37925032D-04  0.51291994D-05 -0.81583966D-05 -0.53783698D-03 -0.91240793D-03
 -0.10387284D-02  0.22566442D-03 -0.16457324D-03  0.15309823D-02  0.97168718D-05
MO    4     MO 0.0        OCC NO =    2.0000000  ORB. ENERGY =  -10.186863
 -0.15135107D-02 -0.27225359D-02 -0.39688379D-02 -0.38869022D-02 -0.15286372D-02
 -0.18852905D-03 -0.33871096D-04  0.19886494D-03  0.15767373D-03  0.75436231D-04
  0.32117497D-05  0.25464950D-05  0.12183259D-05  0.22353559D-03  0.17723432D-03
  0.84794651D-04 -0.10041717D-03 -0.18752105D-04 -0.39765936D-04  0.65072473D-04
 -0.43297848D-04 -0.21774625D-04 -0.47152614D-04  0.12027854D-04  0.26234460D-05
 -0.11260051D-04 -0.19101995D-04 -0.21746616D-04  0.52013310D-04  0.81372375D-04
  0.10391641D-03  0.37540270D-04  0.18580151D-04  0.31520103D-04  0.35883979D-04
  0.40531920D-04  0.46243031D-04 -0.94230422D-04  0.64594712D-04 -0.15140918D-02
 -0.27235812D-02 -0.39703617D-02 -0.38883945D-02 -0.15292241D-02 -0.18864870D-03
 -0.33408457D-04 -0.19885496D-03 -0.15766582D-03 -0.75432448D-04 -0.31906273D-05
 -0.25297477D-05 -0.12103134D-05  0.22366562D-03  0.17733741D-03  0.84843974D-04
  0.10060059D-03  0.18709572D-04 -0.39832265D-04  0.65121215D-04 -0.43287833D-04
 -0.21833382D-04 -0.47134999D-04 -0.12092758D-04 -0.26032890D-05  0.18554386D-04
  0.31476394D-04  0.35834218D-04  0.40542339D-04 -0.46285945D-04  0.94288329D-04
  0.64644163D-04 -0.11270306D-04 -0.19119393D-04 -0.21766423D-04  0.52017770D-04
 -0.81413896D-04 -0.10395051D-03  0.37595818D-04  0.28127682D+00  0.50596686D+00
  0.73758456D+00  0.72235730D+00  0.28408800D+00  0.58625963D-02 -0.20773255D-02
  0.23969966D-02  0.19005030D-02  0.90926231D-03 -0.13688206D-02 -0.10852946D-02
 -0.51924018D-03  0.52721094D-04  0.41800892D-04  0.19998903D-04 -0.10782666D-03
  0.37811437D-03 -0.86765814D-05 -0.58279041D-03  0.14478826D-02 -0.86509220D-03
 -0.86040722D-04 -0.11704858D-04 -0.10016165D-04 -0.28581974D-03 -0.48487592D-03
 -0.55200572D-03  0.33619273D-03  0.48516250D-03  0.10255626D-02  0.11606934D-04
 -0.32872664D+00 -0.59132063D+00 -0.86201093D+00 -0.84421493D+00 -0.33201205D+00
 -0.80772112D-02  0.41952866D-02  0.85172597D-03  0.67530665D-03  0.32308862D-03
  0.26424154D-03  0.20950878D-03  0.10023580D-03  0.50658238D-04  0.40165318D-04
  0.19216392D-04 -0.67166229D-03  0.34952567D-04 -0.29248880D-05 -0.72347427D-03
 -0.12105701D-02  0.19340444D-02 -0.39094106D-03 -0.17226856D-04 -0.25673648D-05
  0.39435066D-03  0.66899207D-03  0.76161226D-03 -0.46115429D-03 -0.15923964D-02
  0.16182089D-03  0.87576915D-05  0.37622520D+00  0.67676207D+00  0.98656512D+00
  0.96619772D+00  0.37998533D+00  0.80451042D-02 -0.30973621D-02  0.22873744D-02
  0.18135870D-02  0.86767888D-03  0.69067521D-03  0.54761459D-03  0.26199659D-03
  0.64115427D-04  0.50835099D-04  0.24321161D-04 -0.91230861D-04 -0.46961901D-03
 -0.14885219D-04 -0.13571869D-03  0.14295787D-02 -0.12938600D-02  0.83584520D-03
 -0.52424503D-05  0.12827811D-04 -0.39187344D-03 -0.66478960D-03 -0.75682798D-03
  0.45765016D-03  0.42198262D-03 -0.14882786D-02  0.16853453D-04  0.28150205D+00
  0.50637201D+00  0.73817517D+00  0.72293572D+00  0.28431548D+00  0.58677315D-02
 -0.20791668D-02 -0.23966253D-02 -0.19002086D-02 -0.90912146D-03  0.13687538D-02
  0.10852417D-02  0.51921484D-03  0.52743542D-04  0.41818690D-04  0.20007419D-04
  0.10775928D-03 -0.37838737D-03 -0.86868385D-05 -0.58219919D-03  0.14482275D-02
 -0.86602826D-03 -0.85858497D-04  0.11691812D-04  0.10024203D-04 -0.28606258D-03
 -0.48528788D-03 -0.55247471D-03  0.33645798D-03 -0.48583434D-03 -0.10262872D-02
  0.11618665D-04 -0.32873225D+00 -0.59133072D+00 -0.86202564D+00 -0.84422933D+00
 -0.33201772D+00 -0.80778036D-02  0.41966997D-02 -0.85217422D-03 -0.67566206D-03
 -0.32325866D-03 -0.26389365D-03 -0.20923295D-03 -0.10010383D-03  0.50721789D-04
  0.40215706D-04  0.19240499D-04  0.67168964D-03 -0.34805775D-04 -0.29349721D-05
 -0.72359096D-03 -0.12111064D-02  0.19346973D-02 -0.39081301D-03  0.17202077D-04
  0.25744079D-05  0.39432105D-03  0.66894182D-03  0.76155506D-03 -0.46131856D-03
  0.15926155D-02 -0.16196111D-03  0.87868404D-05  0.37634444D+00  0.67697657D+00
  0.98687781D+00  0.96650395D+00  0.38010576D+00  0.80481213D-02 -0.30990857D-02
 -0.22866569D-02 -0.18130181D-02 -0.86740670D-03 -0.69071128D-03 -0.54764318D-03
 -0.26201027D-03  0.64137291D-04  0.50852435D-04  0.24329455D-04  0.91407797D-04
  0.46985925D-03 -0.14896400D-04 -0.13514383D-03  0.14297868D-02 -0.12946430D-02
  0.83556681D-03  0.52314815D-05 -0.12845599D-04 -0.39199348D-03 -0.66499325D-03
 -0.75705982D-03  0.45787864D-03 -0.42243310D-03  0.14887660D-02  0.16860064D-04
MO    5     MO 0.0        OCC NO =    2.0000000  ORB. ENERGY =  -10.186654
 -0.27309480D-03 -0.49124886D-03 -0.71612906D-03 -0.70134475D-03 -0.27582420D-03
 -0.33651329D-04 -0.14206267D-04  0.14831329D-04  0.11759293D-04  0.56260273D-05
 -0.17104184D-03 -0.13561368D-03 -0.64881984D-04  0.37952594D-04  0.30091414D-04
  0.14396709D-04  0.51412953D-05  0.15856776D-03 -0.64545665D-05  0.19534250D-04
 -0.16419720D-04 -0.31145298D-05  0.21149246D-04  0.84804795D-06 -0.21051123D-04
  0.67586592D-04  0.11465657D-03  0.13053047D-03 -0.14480799D-04  0.97605443D-05
 -0.46600593D-04  0.66274882D-04 -0.64166428D-04 -0.10885447D-03 -0.12392508D-03
  0.38008520D-04 -0.53408559D-05 -0.91312494D-04 -0.47256172D-04 -0.27300987D-03
 -0.49109610D-03 -0.71590637D-03 -0.70112665D-03 -0.27573843D-03 -0.33628074D-04
 -0.14374929D-04 -0.14832605D-04 -0.11760304D-04 -0.56265113D-05  0.17100727D-03
  0.13558627D-03  0.64868871D-04  0.37924406D-04  0.30069065D-04  0.14386017D-04
 -0.52376442D-05 -0.15853686D-03 -0.64427146D-05  0.19500622D-04 -0.16404987D-04
 -0.30956341D-05  0.21122685D-04 -0.82471416D-06  0.21033873D-04 -0.64153192D-04
 -0.10883201D-03 -0.12389952D-03  0.37985198D-04  0.53662773D-05  0.91267757D-04
 -0.47254022D-04  0.67577792D-04  0.11464164D-03  0.13051347D-03 -0.14492581D-04
 -0.97457773D-05  0.46622557D-04  0.66263092D-04  0.44627281D+00  0.80276524D+00
  0.11702491D+01  0.11460896D+01  0.45073302D+00  0.10128848D-01 -0.45413713D-02
 -0.11721754D-02 -0.92938089D-03 -0.44464598D-03  0.55411213D-03  0.43933802D-03
  0.21019357D-03  0.37625424D-04  0.29832012D-04  0.14272603D-04  0.52427667D-03
  0.44506392D-03 -0.17909421D-04  0.14158294D-02  0.54272325D-03 -0.19585526D-02
  0.29750291D-03  0.91008763D-05 -0.11570955D-04 -0.49373058D-03 -0.83758409D-03
 -0.95354541D-03  0.57176758D-03  0.12602357D-02  0.15068347D-02  0.15039752D-04
 -0.29049181D-01 -0.52254298D-01 -0.76174877D-01 -0.74602265D-01 -0.29339508D-01
 -0.76145936D-03  0.43230179D-03 -0.25047727D-03 -0.19859552D-03 -0.95014544D-04
 -0.30989969D-02 -0.24570969D-02 -0.11755549D-02  0.11476495D-04  0.90993511D-05
  0.43534249D-05 -0.26555950D-04  0.37434986D-03 -0.20655102D-05  0.20855100D-03
 -0.41912047D-03  0.21056947D-03  0.21660785D-02  0.18564314D-05  0.32329425D-04
  0.37283209D-04  0.63248710D-04  0.72005328D-04 -0.44483937D-04 -0.12202405D-03
  0.27236023D-03  0.28430762D-05 -0.35890909D+00 -0.64561348D+00 -0.94115755D+00
 -0.92172758D+00 -0.36249615D+00 -0.83340075D-02  0.39355335D-02  0.18440309D-02
  0.14620739D-02  0.69950363D-03  0.36388438D-03  0.28851245D-03  0.13803372D-03
 -0.20073743D-04 -0.15915838D-04 -0.76146534D-05 -0.43525410D-03  0.47278501D-03
  0.15335034D-04 -0.13803951D-02 -0.32678755D-03  0.17071827D-02  0.82240740D-03
 -0.13507804D-04 -0.34723470D-05  0.40610596D-03  0.68893421D-03  0.78431535D-03
 -0.46878360D-03 -0.77795102D-03  0.14314680D-02 -0.11529431D-04  0.44605393D+00
  0.80237152D+00  0.11696751D+01  0.11455274D+01  0.45051195D+00  0.10123816D-01
 -0.45394947D-02  0.11722108D-02  0.92940893D-03  0.44465940D-03 -0.55431957D-03
 -0.43950250D-03 -0.21027226D-03  0.37613796D-04  0.29822792D-04  0.14268192D-04
 -0.52408091D-03 -0.44490436D-03 -0.17904733D-04  0.14154186D-02  0.54216968D-03
 -0.19575882D-02  0.29742274D-03 -0.90627875D-05  0.11555522D-04 -0.49348598D-03
 -0.83716915D-03 -0.95307302D-03  0.57148890D-03 -0.12596951D-02 -0.15060352D-02
  0.15029732D-04 -0.28957644D-01 -0.52089639D-01 -0.75934842D-01 -0.74367185D-01
 -0.29247057D-01 -0.75904197D-03  0.43063607D-03  0.25081320D-03  0.19886187D-03
  0.95141974D-04  0.30984561D-02  0.24566681D-02  0.11753498D-02  0.11452963D-04
  0.90806930D-05  0.43444983D-05  0.26417899D-04 -0.37455677D-03 -0.20622639D-05
  0.20880963D-03 -0.41859285D-03  0.20978322D-03  0.21657554D-02 -0.18634460D-05
 -0.32309547D-04  0.37205767D-04  0.63117335D-04  0.71855764D-04 -0.44271728D-04
  0.12150635D-03 -0.27211855D-03  0.28403848D-05 -0.35896407D+00 -0.64571238D+00
 -0.94130173D+00 -0.92186878D+00 -0.36255169D+00 -0.83356877D-02  0.39371742D-02
 -0.18445102D-02 -0.14624540D-02 -0.69968544D-03 -0.36363781D-03 -0.28831695D-03