 <qmtool> simtype="Geometry optimization" </qmtool> benze
GAUSSIAN             21 MOL ORBITALS    240 PRIMITIVES       12 NUCLEI
  C    1    (CENTRE  1)  -1.98010292 -2.68657386  0.00000000  CHARGE =  6.0
  C    2    (CENTRE  2)  -2.74861334 -1.61655806  2.27939690  CHARGE =  6.0
  C    3    (CENTRE  3)  -4.28362610  0.52375794  2.28081162  CHARGE =  6.0
  C    4    (CENTRE  4)  -5.04836140  1.59685795  0.00000000  CHARGE =  6.0
  C    5    (CENTRE  5)  -4.28362610  0.52375794 -2.28081184  CHARGE =  6.0
  C    6    (CENTRE  6)  -2.74861334 -1.61655806 -2.27939690  CHARGE =  6.0
  H    7    (CENTRE  7)  -0.76727671 -4.33107263  0.00000000  CHARGE =  1.0
  H    8    (CENTRE  8)  -2.14267202 -2.44163800  4.04838892  CHARGE =  1.0
  H    9    (CENTRE  9)  -4.88020689  1.35362290  4.05119087  CHARGE =  1.0
  H   10    (CENTRE 10)  -6.24184511  3.25650779  0.00000000  CHARGE =  1.0
  H   11    (CENTRE 11)  -4.88020689  1.35362290 -4.05119087  CHARGE =  1.0
  H   12    (CENTRE 12)  -2.14267202 -2.44163800 -4.04838892  CHARGE =  1.0
CENTRE ASSIGNMENTS    1  1  1  1  1  1  1  1  1  1  1  1  1  1  1  1  1  1  1  1
CENTRE ASSIGNMENTS    1  1  1  1  1  1  1  1  1  1  1  1  2  2  2  2  2  2  2  2
CENTRE ASSIGNMENTS    2  2  2  2  2  2  2  2  2  2  2  2  2  2  2  2  2  2  2  2
CENTRE ASSIGNMENTS    2  2  2  2  3  3  3  3  3  3  3  3  3  3  3  3  3  3  3  3
CENTRE ASSIGNMENTS    3  3  3  3  3  3  3  3  3  3  3  3  3  3  3  3  4  4  4  4
CENTRE ASSIGNMENTS    4  4  4  4  4  4  4  4  4  4  4  4  4  4  4  4  4  4  4  4
CENTRE ASSIGNMENTS    4  4  4  4  4  4  4  4  5  5  5  5  5  5  5  5  5  5  5  5
CENTRE ASSIGNMENTS    5  5  5  5  5  5  5  5  5  5  5  5  5  5  5  5  5  5  5  5
CENTRE ASSIGNMENTS    6  6  6  6  6  6  6  6  6  6  6  6  6  6  6  6  6  6  6  6
CENTRE ASSIGNMENTS    6  6  6  6  6  6  6  6  6  6  6  6  7  7  7  7  7  7  7  7
CENTRE ASSIGNMENTS    8  8  8  8  8  8  8  8  9  9  9  9  9  9  9  9 10 10 10 10
CENTRE ASSIGNMENTS   10 10 10 10 11 11 11 11 11 11 11 11 12 12 12 12 12 12 12 12
TYPE ASSIGNMENTS      1  1  1  1  1  1  1  1  1  2  2  2  3  3  3  4  4  4  1  2
TYPE ASSIGNMENTS      3  4  1  2  3  4  5  6  7  8  9 10  1  1  1  1  1  1  1  1
TYPE ASSIGNMENTS      1  2  2  2  3  3  3  4  4  4  1  2  3  4  1  2  3  4  5  6
TYPE ASSIGNMENTS      7  8  9 10  1  1  1  1  1  1  1  1  1  2  2  2  3  3  3  4
TYPE ASSIGNMENTS      4  4  1  2  3  4  1  2  3  4  5  6  7  8  9 10  1  1  1  1
TYPE ASSIGNMENTS      1  1  1  1  1  2  2  2  3  3  3  4  4  4  1  2  3  4  1  2
TYPE ASSIGNMENTS      3  4  5  6  7  8  9 10  1  1  1  1  1  1  1  1  1  2  2  2
TYPE ASSIGNMENTS      3  3  3  4  4  4  1  2  3  4  1  2  3  4  5  6  7  8  9 10
TYPE ASSIGNMENTS      1  1  1  1  1  1  1  1  1  2  2  2  3  3  3  4  4  4  1  2
TYPE ASSIGNMENTS      3  4  1  2  3  4  5  6  7  8  9 10  1  1  1  1  1  2  3  4
TYPE ASSIGNMENTS      1  1  1  1  1  2  3  4  1  1  1  1  1  2  3  4  1  1  1  1
TYPE ASSIGNMENTS      1  2  3  4  1  1  1  1  1  2  3  4  1  1  1  1  1  2  3  4
EXPONENTS  0.4563240D+04 0.6820240D+03 0.1549730D+03 0.4445530D+02 0.1302900D+02
EXPONENTS  0.1827730D+01 0.2096420D+02 0.4803310D+01 0.1459330D+01 0.2096420D+02
EXPONENTS  0.4803310D+01 0.1459330D+01 0.2096420D+02 0.4803310D+01 0.1459330D+01
EXPONENTS  0.2096420D+02 0.4803310D+01 0.1459330D+01 0.4834560D+00 0.4834560D+00
EXPONENTS  0.4834560D+00 0.4834560D+00 0.1455850D+00 0.1455850D+00 0.1455850D+00
EXPONENTS  0.1455850D+00 0.6260000D+00 0.6260000D+00 0.6260000D+00 0.6260000D+00
EXPONENTS  0.6260000D+00 0.6260000D+00 0.4563240D+04 0.6820240D+03 0.1549730D+03
EXPONENTS  0.4445530D+02 0.1302900D+02 0.1827730D+01 0.2096420D+02 0.4803310D+01
EXPONENTS  0.1459330D+01 0.2096420D+02 0.4803310D+01 0.1459330D+01 0.2096420D+02
EXPONENTS  0.4803310D+01 0.1459330D+01 0.2096420D+02 0.4803310D+01 0.1459330D+01
EXPONENTS  0.4834560D+00 0.4834560D+00 0.4834560D+00 0.4834560D+00 0.1455850D+00
EXPONENTS  0.1455850D+00 0.1455850D+00 0.1455850D+00 0.6260000D+00 0.6260000D+00
EXPONENTS  0.6260000D+00 0.6260000D+00 0.6260000D+00 0.6260000D+00 0.4563240D+04
EXPONENTS  0.6820240D+03 0.1549730D+03 0.4445530D+02 0.1302900D+02 0.1827730D+01
EXPONENTS  0.2096420D+02 0.4803310D+01 0.1459330D+01 0.2096420D+02 0.4803310D+01
EXPONENTS  0.1459330D+01 0.2096420D+02 0.4803310D+01 0.1459330D+01 0.2096420D+02
EXPONENTS  0.4803310D+01 0.1459330D+01 0.4834560D+00 0.4834560D+00 0.4834560D+00
EXPONENTS  0.4834560D+00 0.1455850D+00 0.1455850D+00 0.1455850D+00 0.1455850D+00
EXPONENTS  0.6260000D+00 0.6260000D+00 0.6260000D+00 0.6260000D+00 0.6260000D+00
EXPONENTS  0.6260000D+00 0.4563240D+04 0.6820240D+03 0.1549730D+03 0.4445530D+02
EXPONENTS  0.1302900D+02 0.1827730D+01 0.2096420D+02 0.4803310D+01 0.1459330D+01
EXPONENTS  0.2096420D+02 0.4803310D+01 0.1459330D+01 0.2096420D+02 0.4803310D+01
EXPONENTS  0.1459330D+01 0.2096420D+02 0.4803310D+01 0.1459330D+01 0.4834560D+00
EXPONENTS  0.4834560D+00 0.4834560D+00 0.4834560D+00 0.1455850D+00 0.1455850D+00
EXPONENTS  0.1455850D+00 0.1455850D+00 0.6260000D+00 0.6260000D+00 0.6260000D+00
EXPONENTS  0.6260000D+00 0.6260000D+00 0.6260000D+00 0.4563240D+04 0.6820240D+03
EXPONENTS  0.1549730D+03 0.4445530D+02 0.1302900D+02 0.1827730D+01 0.2096420D+02
EXPONENTS  0.4803310D+01 0.1459330D+01 0.2096420D+02 0.4803310D+01 0.1459330D+01
EXPONENTS  0.2096420D+02 0.4803310D+01 0.1459330D+01 0.2096420D+02 0.4803310D+01
EXPONENTS  0.1459330D+01 0.4834560D+00 0.4834560D+00 0.4834560D+00 0.4834560D+00
EXPONENTS  0.1455850D+00 0.1455850D+00 0.1455850D+00 0.1455850D+00 0.6260000D+00
EXPONENTS  0.6260000D+00 0.6260000D+00 0.6260000D+00 0.6260000D+00 0.6260000D+00
EXPONENTS  0.4563240D+04 0.6820240D+03 0.1549730D+03 0.4445530D+02 0.1302900D+02
EXPONENTS  0.1827730D+01 0.2096420D+02 0.4803310D+01 0.1459330D+01 0.2096420D+02
EXPONENTS  0.4803310D+01 0.1459330D+01 0.2096420D+02 0.4803310D+01 0.1459330D+01
EXPONENTS  0.2096420D+02 0.4803310D+01 0.1459330D+01 0.4834560D+00 0.4834560D+00
EXPONENTS  0.4834560D+00 0.4834560D+00 0.1455850D+00 0.1455850D+00 0.1455850D+00
EXPONENTS  0.1455850D+00 0.6260000D+00 0.6260000D+00 0.6260000D+00 0.6260000D+00
EXPONENTS  0.6260000D+00 0.6260000D+00 0.3386500D+02 0.5094790D+01 0.1158790D+01
EXPONENTS  0.3258400D+00 0.1027410D+00 0.7500000D+00 0.7500000D+00 0.7500000D+00
EXPONENTS  0.3386500D+02 0.5094790D+01 0.1158790D+01 0.3258400D+00 0.1027410D+00
EXPONENTS  0.7500000D+00 0.7500000D+00 0.7500000D+00 0.3386500D+02 0.5094790D+01
EXPONENTS  0.1158790D+01 0.3258400D+00 0.1027410D+00 0.7500000D+00 0.7500000D+00
EXPONENTS  0.7500000D+00 0.3386500D+02 0.5094790D+01 0.1158790D+01 0.3258400D+00
EXPONENTS  0.1027410D+00 0.7500000D+00 0.7500000D+00 0.7500000D+00 0.3386500D+02
EXPONENTS  0.5094790D+01 0.1158790D+01 0.3258400D+00 0.1027410D+00 0.7500000D+00
EXPONENTS  0.7500000D+00 0.7500000D+00 0.3386500D+02 0.5094790D+01 0.1158790D+01
EXPONENTS  0.3258400D+00 0.1027410D+00 0.7500000D+00 0.7500000D+00 0.7500000D+00
MO    1     MO 0.0        OCC NO =    2.0000000  ORB. ENERGY =  -11.234147
  0.13665438D+00  0.25439482D+00  0.41847708D+00  0.56194449D+00  0.52909192D+00
  0.43479005D-01  0.11641146D+00  0.30932705D+00 -0.41699448D-03 -0.56023490D-04
 -0.52424184D-04 -0.40604556D-04  0.71795849D-04  0.67183225D-04  0.52036005D-04
 -0.18217792D-09 -0.17047365D-09 -0.13203843D-09  0.62816053D-03 -0.36091516D-04
  0.52114226D-04  0.11147038D-10 -0.27655056D-04 -0.11585811D-05  0.13212606D-05
  0.22517745D-10 -0.39522114D-04 -0.18524941D-04  0.58047055D-04 -0.65436788D-04
  0.25117933D-10 -0.34404354D-10  0.15707542D+00  0.29241047D+00  0.48101247D+00
  0.64591902D+00  0.60815710D+00  0.49976318D-01  0.13381033D+00  0.35555910D+00
 -0.47931850D-03 -0.64303458D-04 -0.60172193D-04 -0.46605690D-04  0.83073953D-04
  0.77736752D-04  0.60210119D-04 -0.41985951D-04 -0.39288505D-04 -0.30430466D-04
  0.71430124D-03 -0.23398605D-04  0.33977520D-04 -0.57653438D-04 -0.25543117D-04
  0.32049715D-05 -0.44705905D-05 -0.30013588D-05 -0.29274451D-04  0.13912452D-04
  0.15361999D-04 -0.12895571D-03 -0.26794786D-04  0.37584892D-04  0.19645700D+00
  0.36572294D+00  0.60161080D+00  0.80786233D+00  0.76063284D+00  0.62506264D-01
  0.16736346D+00  0.44471606D+00 -0.59950832D-03 -0.98926992D-05 -0.92571290D-05
 -0.71700043D-05  0.12630772D-04  0.11819290D-04  0.91544973D-05 -0.10870655D-03
 -0.10172255D-03 -0.78788046D-04  0.88101916D-03  0.21086655D-04 -0.29112004D-04
 -0.77142411D-04 -0.18403564D-04  0.23686440D-05 -0.34670736D-05  0.52220637D-05
 -0.44150637D-04  0.73381548D-05  0.36812482D-04 -0.15262822D-03  0.43712083D-04
 -0.61396475D-04  0.21644462D+00  0.40293175D+00  0.66281894D+00  0.89005459D+00
  0.83801995D+00  0.68865678D-01  0.18439309D+00  0.48996696D+00 -0.66050969D-03
  0.48026516D-04  0.44940986D-04  0.34808531D-04 -0.68209045D-04 -0.63826860D-04
 -0.49436370D-04 -0.48472132D-09 -0.45357973D-09 -0.35131503D-09  0.96573098D-03
  0.52990089D-04 -0.75069022D-04 -0.63124543D-10 -0.16675158D-04 -0.24382451D-05
  0.36725714D-05  0.41265497D-10 -0.69076583D-04 -0.29425544D-04  0.98502128D-04
 -0.11682444D-03 -0.13890230D-10  0.19060121D-10  0.19645748D+00  0.36572383D+00
  0.60161226D+00  0.80786429D+00  0.76063468D+00  0.62506416D-01  0.16736387D+00
  0.44471714D+00 -0.59950977D-03 -0.98927469D-05 -0.92571737D-05 -0.71700388D-05
  0.12630834D-04  0.11819348D-04  0.91545421D-05  0.10870628D-03  0.10172230D-03
  0.78787851D-04  0.88102109D-03  0.21086695D-04 -0.29112059D-04  0.77142445D-04
 -0.18403537D-04  0.23686077D-05 -0.34670227D-05 -0.52220829D-05 -0.44150789D-04
  0.73381824D-05  0.36812606D-04 -0.15262876D-03 -0.43711995D-04  0.61396354D-04
  0.15707551D+00  0.29241064D+00  0.48101276D+00  0.64591940D+00  0.60815747D+00
  0.49976348D-01  0.13381041D+00  0.35555931D+00 -0.47931879D-03 -0.64303780D-04
 -0.60172494D-04 -0.46605923D-04  0.83074397D-04  0.77737168D-04  0.60210441D-04
  0.41985962D-04  0.39288515D-04  0.30430474D-04  0.71430173D-03 -0.23398658D-04
  0.33977594D-04  0.57653435D-04 -0.25543042D-04  0.32049786D-05 -0.44706005D-05
  0.30013810D-05 -0.29274433D-04  0.13912498D-04  0.15361934D-04 -0.12895579D-03
  0.26794852D-04 -0.37584983D-04  0.35590248D-04  0.64199730D-04  0.94647325D-04
 -0.12298886D-04  0.12006869D-04 -0.12881844D-05  0.13977662D-05 -0.25649859D-10
  0.40946244D-04  0.73861182D-04  0.10889085D-03 -0.16792309D-04  0.12919798D-04
 -0.39849035D-05  0.53072075D-05  0.18431443D-05  0.51109382D-04  0.92194032D-04
  0.13591830D-03 -0.25318901D-04  0.14996086D-04 -0.28929772D-05  0.42589055D-05
 -0.37669463D-05  0.56320306D-04  0.10159380D-03  0.14977603D-03 -0.29893047D-04
  0.15898248D-04  0.34444690D-07 -0.18759864D-06 -0.19748646D-10  0.51109507D-04
  0.92194258D-04  0.13591864D-03 -0.25319055D-04  0.14996111D-04 -0.28929805D-05
  0.42589101D-05  0.37668288D-05  0.40946274D-04  0.73861236D-04  0.10889093D-03
 -0.16792331D-04  0.12919809D-04 -0.39849171D-05  0.53072257D-05 -0.18431391D-05
MO    2     MO 0.0        OCC NO =    2.0000000  ORB. ENERGY =  -11.233571
 -0.35306296D-05 -0.65725947D-05 -0.10811857D-04 -0.14518509D-04 -0.13669723D-04
 -0.11233322D-05 -0.30080219D-05 -0.79928773D-05  0.10774957D-07  0.28100467D-09
  0.26295114D-09  0.20366582D-09 -0.22939717D-09 -0.21465924D-09 -0.16626187D-09
 -0.48396385D-03 -0.45287092D-03 -0.35076603D-03 -0.15263144D-07  0.74989702D-09
 -0.10933844D-08 -0.48910574D-04 -0.62654217D-09 -0.77590769D-10  0.11010013D-09
  0.46181172D-04  0.12304913D-08  0.55594136D-09 -0.17864327D-08  0.21220995D-08
  0.67247804D-04 -0.91964852D-04 -0.20762225D+00 -0.38650810D+00 -0.63580218D+00
 -0.85377562D+00 -0.80386193D+00 -0.66058686D-01 -0.17689347D+00 -0.47003906D+00
  0.63364549D-03  0.13982110D-03  0.13083810D-03  0.10133917D-03 -0.18520343D-03
 -0.17330478D-03 -0.13423125D-03 -0.13559768D-03 -0.12688602D-03 -0.98278123D-04
 -0.88802956D-03  0.34435300D-04 -0.50047794D-04  0.51538544D-04 -0.35359807D-04
 -0.15708703D-04  0.22046959D-04 -0.30137814D-06  0.42746092D-04 -0.29896890D-04
 -0.12849203D-04  0.21889287D-03  0.26731962D-04 -0.38012486D-04 -0.23010607D+00
 -0.42836380D+00 -0.70465442D+00 -0.94623263D+00 -0.89091369D+00 -0.73212309D-01
 -0.19605439D+00 -0.52095321D+00  0.70228133D-03 -0.11125187D-03 -0.10410434D-03
 -0.80632834D-04  0.15664906D-03  0.14658492D-03  0.11353569D-03 -0.15033208D-03
 -0.14067379D-03 -0.10895728D-03 -0.97193125D-03 -0.36639746D-04  0.50652962D-04
  0.57704923D-04 -0.30899619D-04  0.16698178D-04 -0.23377954D-04 -0.39947523D-05
  0.52322072D-04 -0.30401861D-04 -0.21920211D-04  0.24469606D-03 -0.29491538D-04
  0.41908255D-04  0.27783557D-05  0.51721671D-05  0.85081662D-05  0.11425039D-04
  0.10757105D-04  0.88398294D-06  0.23672170D-05  0.62901388D-05 -0.84795465D-08
 -0.32306236D-09 -0.30230678D-09 -0.23414828D-09  0.43774366D-09  0.40962021D-09
  0.31726669D-09 -0.53390408D-03 -0.49960267D-03 -0.38696158D-03  0.11689298D-07
  0.59389210D-09 -0.83407934D-09 -0.56030925D-04  0.74129475D-09 -0.85833777D-10
  0.11954296D-09  0.46125359D-04 -0.10722632D-08 -0.44922799D-09  0.15214912D-08
 -0.18384879D-08 -0.71050484D-04  0.99004033D-04  0.23010843D+00  0.42836820D+00
  0.70466166D+00  0.94624235D+00  0.89092284D+00  0.73213061D-01  0.19605640D+00
  0.52095857D+00 -0.70228854D-03  0.11124559D-03  0.10409846D-03  0.80628284D-04
 -0.15664033D-03 -0.14657676D-03 -0.11352936D-03 -0.15032693D-03 -0.14066897D-03
 -0.10895355D-03  0.97194097D-03  0.36639365D-04 -0.50652419D-04  0.57705981D-04
  0.30899859D-04 -0.16697779D-04  0.23377392D-04 -0.39956122D-05 -0.52323139D-04
  0.30401218D-04  0.21921921D-04 -0.24469736D-03 -0.29492551D-04  0.41909661D-04
  0.20761772D+00  0.38649966D+00  0.63578830D+00  0.85375698D+00  0.80384438D+00
  0.66057244D-01  0.17688960D+00  0.47002880D+00 -0.63363166D-03 -0.13982660D-03
 -0.13084325D-03 -0.10134315D-03  0.18521127D-03  0.17331212D-03  0.13423693D-03
 -0.13560275D-03 -0.12689076D-03 -0.98281798D-04  0.88801019D-03 -0.34435428D-04
  0.50047919D-04  0.51536505D-04  0.35359829D-04  0.15709095D-04 -0.22047501D-04
 -0.30048699D-06 -0.42744531D-04  0.29897376D-04  0.12847154D-04 -0.21888970D-03
  0.26730420D-04 -0.38010326D-04 -0.92367830D-09 -0.16661839D-08 -0.24563942D-08
  0.73275144D-09 -0.21322558D-09 -0.43622648D-10  0.64783955D-10 -0.47197184D-04
 -0.54225875D-04 -0.97815742D-04 -0.14420619D-03  0.47093717D-04 -0.10946218D-04
  0.10648835D-04 -0.14793573D-04 -0.17584035D-04 -0.59737409D-04 -0.10775776D-03
 -0.15886335D-03  0.51127350D-04 -0.11139153D-04 -0.99690235D-05  0.13835791D-04
 -0.17593799D-04  0.72478057D-09  0.13074007D-08  0.19274533D-08 -0.62316732D-09
  0.13704747D-09 -0.28091662D-10  0.38987891D-10 -0.48788046D-04  0.59738029D-04
  0.10775888D-03  0.15886500D-03 -0.51128108D-04  0.11139221D-04  0.99684243D-05
 -0.13834953D-04 -0.17593485D-04  0.54224700D-04  0.97813623D-04  0.14420306D-03
 -0.47092769D-04  0.10945998D-04 -0.10649396D-04  0.14794347D-04 -0.17584439D-04
MO    3     MO 0.0        OCC NO =    2.0000000  ORB. ENERGY =  -11.233539
  0.26159573D+00  0.48698474D+00  0.80108531D+00  0.10757231D+01  0.10128339D+01
  0.83231302D-01  0.22287548D+00  0.59222188D+00 -0.79835647D-03 -0.15296815D-04
 -0.14314050D-04 -0.11086785D-04  0.93166855D-05  0.87181222D-05  0.67525226D-05
 -0.64815465D-08 -0.60651306D-08 -0.46976781D-08  0.11280993D-02 -0.54902941D-04
  0.80100458D-04 -0.60596030D-09  0.38244920D-04  0.86918831D-05 -0.12213481D-04
  0.60103774D-09 -0.90761000D-04 -0.39191442D-04  0.12995244D-03 -0.16214059D-03
  0.86685081D-09 -0.11851222D-08  0.16111133D+00  0.29992370D+00  0.49337167D+00
  0.66251535D+00  0.62378318D+00  0.51260416D-01  0.13726699D+00  0.36474410D+00
 -0.49170052D-03  0.20552650D-03  0.19232217D-03  0.14896095D-03 -0.29288222D-03
 -0.27406560D-03 -0.21227440D-03 -0.19672961D-03 -0.18409045D-03 -0.14258517D-03
  0.68819751D-03  0.52967040D-05 -0.54713622D-05 -0.72440472D-04  0.12616689D-04
 -0.16725844D-04  0.23125990D-04  0.29290538D-04 -0.55688031D-04 -0.17994572D-04
  0.73682603D-04 -0.11090705D-03 -0.60912757D-04  0.85243692D-04 -0.89957610D-01
 -0.16746444D+00 -0.27547743D+00 -0.36991996D+00 -0.34829358D+00 -0.28621602D-01
 -0.76646222D-01 -0.20366336D+00  0.27455244D-03  0.23706194D-03  0.22183156D-03
  0.17181712D-03 -0.32967936D-03 -0.30849865D-03 -0.23894413D-03  0.21739540D-03
  0.20342853D-03  0.15756326D-03 -0.37782121D-03  0.15248780D-04 -0.21717328D-04
  0.50211862D-04 -0.22785639D-04 -0.17565129D-04  0.24670698D-04 -0.26634091D-04
  0.38830018D-04  0.24194189D-04 -0.63024207D-04  0.44803183D-04 -0.50196775D-04
  0.69748175D-04 -0.23574925D+00 -0.43886911D+00 -0.72193555D+00 -0.96943828D+00
 -0.91276269D+00 -0.75007786D-01 -0.20086603D+00 -0.53373866D+00  0.71951700D-03
  0.32868699D-04  0.30757004D-04  0.23822489D-04 -0.44793521D-04 -0.41915699D-04
 -0.32465329D-04 -0.70080484D-08 -0.65578066D-08 -0.50792747D-08 -0.98694854D-03
 -0.46894756D-04  0.65920692D-04 -0.81827325D-09 -0.39229535D-04  0.11678829D-04
 -0.16307076D-04  0.60200589D-09  0.88311436D-04  0.32745666D-04 -0.12105710D-03
  0.16401105D-03 -0.10161299D-08  0.14164669D-08 -0.89951559D-01 -0.16745318D+00
 -0.27545890D+00 -0.36989507D+00 -0.34827016D+00 -0.28619677D-01 -0.76641067D-01
 -0.20364967D+00  0.27453398D-03  0.23706482D-03  0.22183426D-03  0.17181921D-03
 -0.32968342D-03 -0.30850245D-03 -0.23894707D-03 -0.21739928D-03 -0.20343216D-03
 -0.15756607D-03 -0.37779566D-03  0.15249767D-04 -0.21718693D-04 -0.50210370D-04
 -0.22784865D-04 -0.17565568D-04  0.24671313D-04  0.26633969D-04  0.38828658D-04
  0.24195005D-04 -0.63023664D-04  0.44796749D-04  0.50195986D-04 -0.69747055D-04
  0.16111677D+00  0.29993383D+00  0.49338833D+00  0.66253771D+00  0.62380423D+00
  0.51262147D-01  0.13727162D+00  0.36475641D+00 -0.49171712D-03  0.20552284D-03
  0.19231874D-03  0.14895830D-03 -0.29287737D-03 -0.27406106D-03 -0.21227088D-03
  0.19672612D-03  0.18408718D-03  0.14258264D-03  0.68822078D-03  0.52958164D-05
 -0.54700713D-05  0.72441834D-04  0.12617620D-04 -0.16725437D-04  0.23125419D-04
 -0.29290544D-04 -0.55689159D-04 -0.17993800D-04  0.73682959D-04 -0.11091277D-03
  0.60913458D-04 -0.85244689D-04  0.68349704D-04  0.12329311D-03  0.18176655D-03
 -0.56641432D-04  0.14777910D-04  0.41024182D-05 -0.59084232D-05 -0.61907021D-09
  0.41902952D-04  0.75586948D-04  0.11143508D-03 -0.32943270D-04  0.85494821D-05
  0.21344046D-04 -0.29475241D-04 -0.16769242D-04 -0.23517463D-04 -0.42422148D-04
 -0.62541427D-04  0.23405872D-04 -0.39529266D-05  0.22098104D-04 -0.30904086D-04
  0.17891326D-04 -0.61174339D-04 -0.11034978D-03 -0.16268466D-03  0.55119554D-04
 -0.10538968D-04  0.45702694D-05 -0.63073936D-05 -0.65662742D-09 -0.23515896D-04
 -0.42419322D-04 -0.62537262D-04  0.23404536D-04 -0.39526368D-05  0.22098368D-04
 -0.30904452D-04 -0.17891779D-04  0.41904372D-04  0.75589508D-04  0.11143886D-03
 -0.32944503D-04  0.85497709D-05  0.21343772D-04 -0.29474859D-04  0.16768778D-04
MO    4     MO 0.0        OCC NO =    2.0000000  ORB. ENERGY =  -11.232328
 -0.34049849D-04 -0.63386954D-04 -0.10427094D-03 -0.14001838D-03 -0.13183258D-03
 -0.10833561D-04 -0.29017010D-04 -0.77103628D-04  0.10394108D-06 -0.24818609D-07
 -0.23224104D-07 -0.17987966D-07  0.36072146D-07  0.33754641D-07  0.26144274D-07
  0.53452020D-03  0.50017921D-03  0.38740813D-03 -0.13050337D-06  0.57044014D-08
 -0.84041405D-08  0.54726663D-04  0.14814785D-08 -0.24239004D-08  0.33800477D-08
 -0.49033096D-05  0.15188032D-07  0.40901878D-08 -0.19278220D-07  0.34424914D-07
 -0.44955367D-04  0.61273802D-04  0.23018550D+00  0.42851167D+00  0.70489767D+00
  0.94655926D+00  0.89122123D+00  0.73237581D-01  0.19616602D+00  0.52124986D+00
 -0.70268122D-03  0.20987263D-03  0.19638907D-03  0.15211093D-03 -0.30267292D-03
 -0.28322728D-03 -0.21937047D-03  0.16037604D-03  0.15007246D-03  0.11623692D-03
  0.87428453D-03 -0.48659002D-05  0.92096675D-05 -0.70197472D-04 -0.43201875D-04
  0.12406154D-04 -0.17391777D-04  0.36542702D-04 -0.92724721D-04 -0.20483014D-05
  0.94773023D-04 -0.27111599D-03 -0.38313825D-04  0.54600541D-04 -0.20767102D+00
 -0.38659888D+00 -0.63595152D+00 -0.85397616D+00 -0.80405074D+00 -0.66074202D-01
 -0.17698330D+00 -0.47027777D+00  0.63396729D-03  0.22871286D-03  0.21401889D-03
  0.16576590D-03 -0.31689279D-03 -0.29653358D-03 -0.22967672D-03 -0.14520497D-03
 -0.13587607D-03 -0.10524127D-03 -0.77771279D-03 -0.28646299D-05  0.35702107D-05
  0.63894632D-04  0.46707119D-04  0.10749620D-04 -0.14924171D-04 -0.36295554D-04
  0.87902468D-04  0.47259912D-05 -0.92628459D-04  0.24664242D-03 -0.35339426D-04
  0.49408591D-04 -0.38276689D-04 -0.71255609D-04 -0.11721481D-03 -0.15739981D-03
 -0.14819786D-03 -0.12178404D-04 -0.32620804D-04 -0.86679586D-04  0.11685014D-06
  0.35976237D-07  0.33664894D-07  0.26074761D-07 -0.50162944D-07 -0.46940156D-07
 -0.36356965D-07 -0.48042103D-03 -0.44955572D-03 -0.34819828D-03 -0.14291620D-06
 -0.60305139D-08  0.85333742D-08 -0.50547580D-04  0.13215046D-07  0.54667369D-08
 -0.76267890D-08  0.33995932D-07  0.17192900D-07  0.25332781D-08 -0.19726178D-07
  0.43222808D-07 -0.37625136D-04  0.52172556D-04  0.20771669D+00  0.38668390D+00
  0.63609138D+00  0.85416396D+00  0.80422757D+00  0.66088733D-01  0.17702222D+00
  0.47038119D+00 -0.63410671D-03 -0.22867488D-03 -0.21398334D-03 -0.16573837D-03
  0.31683923D-03  0.29648345D-03  0.22963790D-03 -0.14532556D-03 -0.13598892D-03
 -0.10532867D-03  0.77788434D-03  0.28746303D-05 -0.35839684D-05  0.63899183D-04
 -0.46725113D-04 -0.10753225D-04  0.14929150D-04 -0.36306378D-04 -0.87918445D-04
 -0.47206959D-05  0.92639140D-04 -0.24670524D-03 -0.35338223D-04  0.49407120D-04
 -0.23016074D+00 -0.42846559D+00 -0.70482186D+00 -0.94645747D+00 -0.89112538D+00
 -0.73229705D-01 -0.19614493D+00 -0.52119380D+00  0.70260565D-03 -0.20992995D-03
 -0.19644271D-03 -0.15215247D-03  0.30275150D-03  0.28330081D-03  0.21942743D-03
  0.16027993D-03  0.14998253D-03  0.11616726D-03 -0.87419135D-03  0.48570593D-05
 -0.91971856D-05 -0.70197993D-04  0.43205435D-04 -0.12405212D-04  0.17390464D-04
  0.36542384D-04  0.92718180D-04  0.20549051D-05 -0.94773086D-04  0.27107612D-03
 -0.38314486D-04  0.54601151D-04 -0.85218589D-08 -0.15372218D-07 -0.22662701D-07
  0.60291066D-08 -0.70573892D-09 -0.49756268D-09  0.64736027D-09  0.20979847D-04
  0.57478657D-04  0.10368330D-03  0.15285651D-03 -0.44256322D-04  0.20552178D-05
  0.61228651D-05 -0.81809592D-05  0.23454130D-05 -0.51548131D-04 -0.92985474D-04
 -0.13708510D-03  0.39060829D-04 -0.93068491D-06  0.70646328D-05 -0.98130357D-05
 -0.43443472D-06 -0.94948750D-08 -0.17127400D-07 -0.25250302D-07  0.76815140D-08
  0.15684201D-09  0.83586972D-09 -0.11432945D-08 -0.15828365D-04  0.51559506D-04
  0.93005993D-04  0.13711535D-03 -0.39070680D-04  0.93033488D-06 -0.70632490D-05
  0.98111502D-05 -0.43804104D-06 -0.57472513D-04 -0.10367221D-03 -0.15284017D-03
  0.44252660D-04 -0.20544731D-05 -0.61254254D-05  0.81844605D-05  0.23425226D-05
MO    5     MO 0.0        OCC NO =    2.0000000  ORB. ENERGY =  -11.232323
  0.23700777D+00  0.44121196D+00  0.72578952D+00  0.97461351D+00  0.91763536D+00
  0.75408206D-01  0.20197632D+00  0.53668891D+00 -0.72349415D-03  0.17347329D-03
  0.16232826D-03  0.12572951D-03 -0.25208468D-03 -0.23588915D-03 -0.18270526D-03
  0.76540145D-07  0.71622717D-07  0.55474563D-07  0.90798446D-03 -0.39607506D-04
  0.58360298D-04  0.78401222D-08 -0.11185760D-04  0.17137276D-04 -0.23893393D-04
 -0.68002646D-09 -0.10573053D-03 -0.28356019D-04  0.13408655D-03 -0.24000962D-03
 -0.64278443D-08  0.87608028D-08 -0.87055999D-01 -0.16206282D+00 -0.26659182D+00
 -0.35798807D+00 -0.33705926D+00 -0.27698403D-01 -0.74190144D-01 -0.19713711D+00
  0.26575459D-03  0.19914016D-03  0.18634613D-03  0.14433228D-03 -0.27297064D-03
 -0.25543326D-03 -0.19784293D-03 -0.33474768D-03 -0.31324135D-03 -0.24261753D-03
 -0.32801499D-03  0.30880817D-04 -0.43603698D-04 -0.16206173D-05 -0.11303000D-04
 -0.34285563D-05  0.47772493D-05 -0.14901671D-05  0.23059915D-04 -0.22993741D-04
 -0.66173723D-07  0.13966267D-03 -0.23471255D-05  0.21840507D-05 -0.15896451D+00
 -0.29592718D+00 -0.48679743D+00 -0.65368725D+00 -0.61547119D+00 -0.50577365D-01
 -0.13547402D+00 -0.35997985D+00  0.48527798D-03 -0.13264860D-03 -0.12412641D-03
 -0.96140702D-04  0.18702291D-03  0.17500736D-03  0.13554997D-03 -0.41879444D-03
 -0.39188841D-03 -0.30353272D-03 -0.59752142D-03 -0.34753515D-04  0.47809836D-04
  0.16565447D-04  0.61634903D-04  0.12370015D-04 -0.17085053D-04 -0.37248581D-04
  0.55507153D-04 -0.18445760D-04 -0.37061392D-04  0.21838217D-03  0.34927452D-05
 -0.41523553D-05  0.26527781D+00  0.49383926D+00  0.81236094D+00  0.10908644D+01
  0.10270900D+01  0.84402819D-01  0.22607963D+00  0.60073590D+00 -0.80983396D-03
 -0.25012283D-03 -0.23405334D-03 -0.18128336D-03  0.34875900D-03  0.32635249D-03
  0.25277262D-03 -0.69444087D-07 -0.64982556D-07 -0.50331501D-07  0.99018774D-03
  0.41975709D-04 -0.59394114D-04 -0.70641483D-08 -0.90869200D-04 -0.37720858D-04
  0.52623435D-04  0.57361921D-11 -0.11941458D-03 -0.17747526D-04  0.13716211D-03
 -0.29975161D-03 -0.52961147D-08  0.73416438D-08 -0.15890459D+00 -0.29581564D+00
 -0.48661395D+00 -0.65344087D+00 -0.61523921D+00 -0.50558302D-01 -0.13542296D+00
 -0.35984417D+00  0.48509507D-03 -0.13271416D-03 -0.12418775D-03 -0.96188216D-04
  0.18711374D-03  0.17509236D-03  0.13561580D-03  0.41875228D-03  0.39184896D-03
  0.30350216D-03 -0.59729691D-03 -0.34752734D-04  0.47808870D-04 -0.16546746D-04
  0.61621501D-04  0.12366930D-04 -0.17080770D-04  0.37238135D-04  0.55481792D-04
 -0.18447137D-04 -0.37034655D-04  0.21831105D-03 -0.35031328D-05  0.41668791D-05
 -0.87122011D-01 -0.16218571D+00 -0.26679397D+00 -0.35825952D+00 -0.33731484D+00
 -0.27719406D-01 -0.74246400D-01 -0.19728659D+00  0.26595610D-03  0.19907968D-03
  0.18628953D-03  0.14428844D-03 -0.27288343D-03 -0.25535166D-03 -0.19777973D-03
  0.33479365D-03  0.31328437D-03  0.24265085D-03 -0.32826560D-03  0.30882153D-04
 -0.43606256D-04  0.16004837D-05 -0.11290581D-04 -0.34320966D-05  0.47822126D-05
  0.15006728D-05  0.23086550D-04 -0.22993102D-04 -0.93447283D-07  0.13974039D-03
  0.23360999D-05 -0.21683392D-05  0.59313834D-04  0.10699369D-03  0.15773691D-03
 -0.42118646D-04  0.48164611D-05  0.35062767D-05 -0.45581199D-05  0.29939713D-08
 -0.21613225D-04 -0.38987174D-04 -0.57477371D-04  0.12988263D-04 -0.25694779D-05
  0.88912631D-05 -0.12160193D-04 -0.10114091D-04 -0.39570612D-04 -0.71379739D-04
 -0.10523255D-03  0.33919743D-04  0.11206631D-05 -0.48771561D-05  0.66461035D-05
 -0.12218941D-04  0.65801338D-04  0.11869623D-03  0.17498952D-03 -0.53022158D-04
 -0.10775563D-05 -0.56737558D-05  0.77598549D-05 -0.22829863D-08 -0.39555740D-04
 -0.71352911D-04 -0.10519300D-03  0.33908539D-04  0.11209359D-05 -0.48791634D-05
  0.66488918D-05  0.12218902D-04 -0.21629706D-04 -0.39016904D-04 -0.57521201D-04
  0.13000948D-04 -0.25700635D-05  0.88894822D-05 -0.12157813D-04  0.10114746D-04
MO    6     MO 0.0        OCC NO =    2.0000000  ORB. ENERGY =  -11.231699
  0.22111796D+00  0.41163160D+00  0.67713011D+00  0.90927210D+00  0.85611396D+00
  0.70352583D-01  0.18845640D+00  0.50076395D+00 -0.67506479D-03  0.25937943D-03
  0.24271524D-03  0.18799233D-03 -0.37035651D-03 -0.34656244D-03 -0.26842601D-03
 -0.13706273D-09 -0.12825694D-09 -0.99339958D-10  0.81215822D-03 -0.31259777D-04
  0.46484688D-04  0.44014206D-10 -0.23788310D-03  0.72201841D-04 -0.99936273D-04
 -0.24833445D-10 -0.89462331D-04  0.64669272D-05  0.82995404D-04 -0.29622115D-03
 -0.33690080D-10  0.46731465D-10 -0.19460880D+00 -0.36228234D+00 -0.59595104D+00
 -0.80026223D+00 -0.75347706D+00 -0.61918226D-01 -0.16586616D+00 -0.44073744D+00
  0.59414486D-03 -0.79095880D-04 -0.74014256D-04 -0.57326902D-04  0.11882691D-03
  0.11119271D-03  0.86123052D-04 -0.40350482D-03 -0.37758109D-03 -0.29245115D-03
 -0.70772524D-03  0.16446500D-04 -0.24472378D-04  0.37601068D-04  0.23480138D-03
 -0.35339261D-04  0.48902502D-04 -0.10251400D-03  0.87513268D-04  0.59507387D-05
 -0.93464006D-04  0.24570145D-03 -0.23578382D-04  0.31238444D-04  0.15537203D+00
  0.28923945D+00  0.47579618D+00  0.63891442D+00  0.60156201D+00  0.49434355D-01
  0.13242734D+00  0.35188425D+00 -0.47436455D-03 -0.13780917D-03 -0.12895543D-03
 -0.99880964D-04  0.19063625D-03  0.17838856D-03  0.13816883D-03  0.28018197D-03
  0.26218129D-03  0.20306955D-03  0.55991465D-03  0.71541927D-05 -0.96489154D-05
 -0.34462416D-04 -0.22675944D-03 -0.32599416D-04  0.45446457D-04  0.96377859D-04
 -0.75229330D-04 -0.11936490D-04  0.87165820D-04 -0.18727234D-03 -0.22455006D-04
  0.31282793D-04 -0.13919695D+00 -0.25912805D+00 -0.42626320D+00 -0.57239994D+00
 -0.53893612D+00 -0.44287969D-01 -0.11864191D+00 -0.31525376D+00  0.42498409D-03
  0.19315253D-03  0.18074318D-03  0.13999258D-03 -0.27017970D-03 -0.25282163D-03
 -0.19582013D-03  0.52175272D-09  0.48823199D-09  0.37815455D-09 -0.50043067D-03
 -0.18285955D-04  0.25843530D-04 -0.92074360D-10  0.22152208D-03  0.62763987D-04
 -0.87891445D-04 -0.62008944D-11  0.53937298D-04 -0.16114961D-04 -0.37822336D-04
  0.20681199D-03 -0.35410595D-10  0.50260642D-10  0.15537167D+00  0.28923878D+00
  0.47579508D+00  0.63891293D+00  0.60156061D+00  0.49434240D-01  0.13242704D+00
  0.35188343D+00 -0.47436345D-03 -0.13780916D-03 -0.12895542D-03 -0.99880957D-04
  0.19063624D-03  0.17838855D-03  0.13816883D-03 -0.28018157D-03 -0.26218091D-03
 -0.20306925D-03  0.55991320D-03  0.71542024D-05 -0.96489301D-05  0.34462107D-04
 -0.22675941D-03 -0.32599409D-04  0.45446448D-04 -0.96377824D-04 -0.75229197D-04
 -0.11936487D-04  0.87165684D-04 -0.18727196D-03  0.22455201D-04 -0.31283065D-04
 -0.19460879D+00 -0.36228233D+00 -0.59595103D+00 -0.80026221D+00 -0.75347704D+00
 -0.61918224D-01 -0.16586616D+00 -0.44073743D+00  0.59414485D-03 -0.79095649D-04
 -0.74014039D-04 -0.57326734D-04  0.11882659D-03  0.11119241D-03  0.86122818D-04
  0.40350470D-03  0.37758098D-03  0.29245106D-03 -0.70772531D-03  0.16446558D-04
 -0.24472459D-04 -0.37601018D-04  0.23480134D-03 -0.35339276D-04  0.48902523D-04
  0.10251396D-03  0.87513218D-04  0.59506916D-05 -0.93463909D-04  0.24570144D-03
  0.23578409D-04 -0.31238482D-04  0.54902113D-04  0.99035578D-04  0.14600455D-03