 <qmtool> simtype="Geometry optimization" </qmtool> benze
GAUSSIAN             21 MOL ORBITALS    240 PRIMITIVES       12 NUCLEI
  C    1    (CENTRE  1)   1.98010337  2.68657386  0.00000000  CHARGE =  6.0
  C    2    (CENTRE  2)   2.74861334  1.61655806 -2.27939690  CHARGE =  6.0
  C    3    (CENTRE  3)   4.28362565 -0.52375794 -2.28081184  CHARGE =  6.0
  C    4    (CENTRE  4)   5.04836140 -1.59685795  0.00000000  CHARGE =  6.0
  C    5    (CENTRE  5)   4.28362565 -0.52375794  2.28081162  CHARGE =  6.0
  C    6    (CENTRE  6)   2.74861334  1.61655806  2.27939690  CHARGE =  6.0
  H    7    (CENTRE  7)   0.76727671  4.33107263  0.00000000  CHARGE =  1.0
  H    8    (CENTRE  8)   2.14267247  2.44163800 -4.04838892  CHARGE =  1.0
  H    9    (CENTRE  9)   4.88020689 -1.35362290 -4.05119087  CHARGE =  1.0
  H   10    (CENTRE 10)   6.24184511 -3.25650801  0.00000000  CHARGE =  1.0
  H   11    (CENTRE 11)   4.88020689 -1.35362290  4.05119087  CHARGE =  1.0
  H   12    (CENTRE 12)   2.14267247  2.44163800  4.04838892  CHARGE =  1.0
CENTRE ASSIGNMENTS    1  1  1  1  1  1  1  1  1  1  1  1  1  1  1  1  1  1  1  1
CENTRE ASSIGNMENTS    1  1  1  1  1  1  1  1  1  1  1  1  2  2  2  2  2  2  2  2
CENTRE ASSIGNMENTS    2  2  2  2  2  2  2  2  2  2  2  2  2  2  2  2  2  2  2  2
CENTRE ASSIGNMENTS    2  2  2  2  3  3  3  3  3  3  3  3  3  3  3  3  3  3  3  3
CENTRE ASSIGNMENTS    3  3  3  3  3  3  3  3  3  3  3  3  3  3  3  3  4  4  4  4
CENTRE ASSIGNMENTS    4  4  4  4  4  4  4  4  4  4  4  4  4  4  4  4  4  4  4  4
CENTRE ASSIGNMENTS    4  4  4  4  4  4  4  4  5  5  5  5  5  5  5  5  5  5  5  5
CENTRE ASSIGNMENTS    5  5  5  5  5  5  5  5  5  5  5  5  5  5  5  5  5  5  5  5
CENTRE ASSIGNMENTS    6  6  6  6  6  6  6  6  6  6  6  6  6  6  6  6  6  6  6  6
CENTRE ASSIGNMENTS    6  6  6  6  6  6  6  6  6  6  6  6  7  7  7  7  7  7  7  7
CENTRE ASSIGNMENTS    8  8  8  8  8  8  8  8  9  9  9  9  9  9  9  9 10 10 10 10
CENTRE ASSIGNMENTS   10 10 10 10 11 11 11 11 11 11 11 11 12 12 12 12 12 12 12 12
TYPE ASSIGNMENTS      1  1  1  1  1  1  1  1  1  2  2  2  3  3  3  4  4  4  1  2
TYPE ASSIGNMENTS      3  4  1  2  3  4  5  6  7  8  9 10  1  1  1  1  1  1  1  1
TYPE ASSIGNMENTS      1  2  2  2  3  3  3  4  4  4  1  2  3  4  1  2  3  4  5  6
TYPE ASSIGNMENTS      7  8  9 10  1  1  1  1  1  1  1  1  1  2  2  2  3  3  3  4
TYPE ASSIGNMENTS      4  4  1  2  3  4  1  2  3  4  5  6  7  8  9 10  1  1  1  1
TYPE ASSIGNMENTS      1  1  1  1  1  2  2  2  3  3  3  4  4  4  1  2  3  4  1  2
TYPE ASSIGNMENTS      3  4  5  6  7  8  9 10  1  1  1  1  1  1  1  1  1  2  2  2
TYPE ASSIGNMENTS      3  3  3  4  4  4  1  2  3  4  1  2  3  4  5  6  7  8  9 10
TYPE ASSIGNMENTS      1  1  1  1  1  1  1  1  1  2  2  2  3  3  3  4  4  4  1  2
TYPE ASSIGNMENTS      3  4  1  2  3  4  5  6  7  8  9 10  1  1  1  1  1  2  3  4
TYPE ASSIGNMENTS      1  1  1  1  1  2  3  4  1  1  1  1  1  2  3  4  1  1  1  1
TYPE ASSIGNMENTS      1  2  3  4  1  1  1  1  1  2  3  4  1  1  1  1  1  2  3  4
EXPONENTS  0.4563240D+04 0.6820240D+03 0.1549730D+03 0.4445530D+02 0.1302900D+02
EXPONENTS  0.1827730D+01 0.2096420D+02 0.4803310D+01 0.1459330D+01 0.2096420D+02
EXPONENTS  0.4803310D+01 0.1459330D+01 0.2096420D+02 0.4803310D+01 0.1459330D+01
EXPONENTS  0.2096420D+02 0.4803310D+01 0.1459330D+01 0.4834560D+00 0.4834560D+00
EXPONENTS  0.4834560D+00 0.4834560D+00 0.1455850D+00 0.1455850D+00 0.1455850D+00
EXPONENTS  0.1455850D+00 0.6260000D+00 0.6260000D+00 0.6260000D+00 0.6260000D+00
EXPONENTS  0.6260000D+00 0.6260000D+00 0.4563240D+04 0.6820240D+03 0.1549730D+03
EXPONENTS  0.4445530D+02 0.1302900D+02 0.1827730D+01 0.2096420D+02 0.4803310D+01
EXPONENTS  0.1459330D+01 0.2096420D+02 0.4803310D+01 0.1459330D+01 0.2096420D+02
EXPONENTS  0.4803310D+01 0.1459330D+01 0.2096420D+02 0.4803310D+01 0.1459330D+01
EXPONENTS  0.4834560D+00 0.4834560D+00 0.4834560D+00 0.4834560D+00 0.1455850D+00
EXPONENTS  0.1455850D+00 0.1455850D+00 0.1455850D+00 0.6260000D+00 0.6260000D+00
EXPONENTS  0.6260000D+00 0.6260000D+00 0.6260000D+00 0.6260000D+00 0.4563240D+04
EXPONENTS  0.6820240D+03 0.1549730D+03 0.4445530D+02 0.1302900D+02 0.1827730D+01
EXPONENTS  0.2096420D+02 0.4803310D+01 0.1459330D+01 0.2096420D+02 0.4803310D+01
EXPONENTS  0.1459330D+01 0.2096420D+02 0.4803310D+01 0.1459330D+01 0.2096420D+02
EXPONENTS  0.4803310D+01 0.1459330D+01 0.4834560D+00 0.4834560D+00 0.4834560D+00
EXPONENTS  0.4834560D+00 0.1455850D+00 0.1455850D+00 0.1455850D+00 0.1455850D+00
EXPONENTS  0.6260000D+00 0.6260000D+00 0.6260000D+00 0.6260000D+00 0.6260000D+00
EXPONENTS  0.6260000D+00 0.4563240D+04 0.6820240D+03 0.1549730D+03 0.4445530D+02
EXPONENTS  0.1302900D+02 0.1827730D+01 0.2096420D+02 0.4803310D+01 0.1459330D+01
EXPONENTS  0.2096420D+02 0.4803310D+01 0.1459330D+01 0.2096420D+02 0.4803310D+01
EXPONENTS  0.1459330D+01 0.2096420D+02 0.4803310D+01 0.1459330D+01 0.4834560D+00
EXPONENTS  0.4834560D+00 0.4834560D+00 0.4834560D+00 0.1455850D+00 0.1455850D+00
EXPONENTS  0.1455850D+00 0.1455850D+00 0.6260000D+00 0.6260000D+00 0.6260000D+00
EXPONENTS  0.6260000D+00 0.6260000D+00 0.6260000D+00 0.4563240D+04 0.6820240D+03
EXPONENTS  0.1549730D+03 0.4445530D+02 0.1302900D+02 0.1827730D+01 0.2096420D+02
EXPONENTS  0.4803310D+01 0.1459330D+01 0.2096420D+02 0.4803310D+01 0.1459330D+01
EXPONENTS  0.2096420D+02 0.4803310D+01 0.1459330D+01 0.2096420D+02 0.4803310D+01
EXPONENTS  0.1459330D+01 0.4834560D+00 0.4834560D+00 0.4834560D+00 0.4834560D+00
EXPONENTS  0.1455850D+00 0.1455850D+00 0.1455850D+00 0.1455850D+00 0.6260000D+00
EXPONENTS  0.6260000D+00 0.6260000D+00 0.6260000D+00 0.6260000D+00 0.6260000D+00
EXPONENTS  0.4563240D+04 0.6820240D+03 0.1549730D+03 0.4445530D+02 0.1302900D+02
EXPONENTS  0.1827730D+01 0.2096420D+02 0.4803310D+01 0.1459330D+01 0.2096420D+02
EXPONENTS  0.4803310D+01 0.1459330D+01 0.2096420D+02 0.4803310D+01 0.1459330D+01
EXPONENTS  0.2096420D+02 0.4803310D+01 0.1459330D+01 0.4834560D+00 0.4834560D+00
EXPONENTS  0.4834560D+00 0.4834560D+00 0.1455850D+00 0.1455850D+00 0.1455850D+00
EXPONENTS  0.1455850D+00 0.6260000D+00 0.6260000D+00 0.6260000D+00 0.6260000D+00
EXPONENTS  0.6260000D+00 0.6260000D+00 0.3386500D+02 0.5094790D+01 0.1158790D+01
EXPONENTS  0.3258400D+00 0.1027410D+00 0.7500000D+00 0.7500000D+00 0.7500000D+00
EXPONENTS  0.3386500D+02 0.5094790D+01 0.1158790D+01 0.3258400D+00 0.1027410D+00
EXPONENTS  0.7500000D+00 0.7500000D+00 0.7500000D+00 0.3386500D+02 0.5094790D+01
EXPONENTS  0.1158790D+01 0.3258400D+00 0.1027410D+00 0.7500000D+00 0.7500000D+00
EXPONENTS  0.7500000D+00 0.3386500D+02 0.5094790D+01 0.1158790D+01 0.3258400D+00
EXPONENTS  0.1027410D+00 0.7500000D+00 0.7500000D+00 0.7500000D+00 0.3386500D+02
EXPONENTS  0.5094790D+01 0.1158790D+01 0.3258400D+00 0.1027410D+00 0.7500000D+00
EXPONENTS  0.7500000D+00 0.7500000D+00 0.3386500D+02 0.5094790D+01 0.1158790D+01
EXPONENTS  0.3258400D+00 0.1027410D+00 0.7500000D+00 0.7500000D+00 0.7500000D+00
MO    1     MO 0.0        OCC NO =    2.0000000  ORB. ENERGY =  -11.234147
  0.13665126D+00  0.25438900D+00  0.41846751D+00  0.56193163D+00  0.52907981D+00
  0.43478010D-01  0.11640880D+00  0.30931998D+00 -0.41698494D-03  0.56021472D-04
  0.52422295D-04  0.40603094D-04 -0.71793305D-04 -0.67180845D-04 -0.52034161D-04
 -0.18218438D-09 -0.17047969D-09 -0.13204311D-09  0.62814602D-03  0.36090784D-04
 -0.52113213D-04  0.11146795D-10 -0.27656408D-04  0.11584839D-05 -0.13211259D-05
  0.22514176D-10 -0.39521221D-04 -0.18524413D-04  0.58045634D-04 -0.65435653D-04
 -0.25117805D-10  0.34404653D-10  0.15707136D+00  0.29240292D+00  0.48100006D+00
  0.64590235D+00  0.60814141D+00  0.49975028D-01  0.13380687D+00  0.35554992D+00
 -0.47930613D-03  0.64306880D-04  0.60175395D-04  0.46608169D-04 -0.83078922D-04
 -0.77741402D-04 -0.60213721D-04  0.41985252D-04  0.39287852D-04  0.30429960D-04
  0.71428476D-03  0.23398510D-04 -0.33977337D-04  0.57651877D-04 -0.25542777D-04
 -0.32051864D-05  0.44708970D-05  0.30021867D-05 -0.29273041D-04  0.13912699D-04
  0.15360341D-04 -0.12895217D-03 -0.26793681D-04  0.37583317D-04  0.19645869D+00
  0.36572608D+00  0.60161596D+00  0.80786927D+00  0.76063937D+00  0.62506801D-01
  0.16736490D+00  0.44471988D+00 -0.59951346D-03  0.98985236D-05  0.92625792D-05
  0.71742256D-05 -0.12638879D-04 -0.11826877D-04 -0.91603730D-05  0.10871217D-03
  0.10172780D-03  0.78792116D-04  0.88102637D-03 -0.21086242D-04  0.29111513D-04
  0.77143447D-04 -0.18403337D-04 -0.23689363D-05  0.34674561D-05 -0.52226206D-05
 -0.44151361D-04  0.73377080D-05  0.36813653D-04 -0.15262899D-03  0.43712974D-04
 -0.61397747D-04  0.21645041D+00  0.40294254D+00  0.66283668D+00  0.89007842D+00
  0.83804238D+00  0.68867522D-01  0.18439803D+00  0.48998008D+00 -0.66052738D-03
 -0.48024952D-04 -0.44939522D-04 -0.34807397D-04  0.68206425D-04  0.63824409D-04
  0.49434472D-04 -0.48473009D-09 -0.45358794D-09 -0.35132139D-09  0.96575455D-03
 -0.52991293D-04  0.75070698D-04 -0.63131759D-10 -0.16674358D-04  0.24385262D-05
 -0.36729363D-05  0.41271400D-10 -0.69078816D-04 -0.29426278D-04  0.98505094D-04
 -0.11682885D-03  0.13893162D-10 -0.19064225D-10  0.19645821D+00  0.36572519D+00
  0.60161451D+00  0.80786731D+00  0.76063753D+00  0.62506649D-01  0.16736449D+00
  0.44471880D+00 -0.59951201D-03  0.98984759D-05  0.92625346D-05  0.71741911D-05
 -0.12638817D-04 -0.11826819D-04 -0.91603282D-05 -0.10871244D-03 -0.10172806D-03
 -0.78792312D-04  0.88102444D-03 -0.21086202D-04  0.29111457D-04 -0.77143413D-04
 -0.18403365D-04 -0.23689727D-05  0.34675070D-05  0.52226014D-05 -0.44151209D-04
  0.73376804D-05  0.36813529D-04 -0.15262846D-03 -0.43713062D-04  0.61397868D-04
  0.15707127D+00  0.29240275D+00  0.48099977D+00  0.64590197D+00  0.60814105D+00
  0.49974999D-01  0.13380680D+00  0.35554971D+00 -0.47930585D-03  0.64306558D-04
  0.60175094D-04  0.46607936D-04 -0.83078478D-04 -0.77740986D-04 -0.60213399D-04
 -0.41985241D-04 -0.39287841D-04 -0.30429952D-04  0.71428427D-03  0.23398457D-04
 -0.33977263D-04 -0.57651880D-04 -0.25542853D-04 -0.32051793D-05  0.44708871D-05
 -0.30021644D-05 -0.29273060D-04  0.13912653D-04  0.15360406D-04 -0.12895209D-03
  0.26793616D-04 -0.37583226D-04  0.35589405D-04  0.64198208D-04  0.94645081D-04
 -0.12298126D-04  0.12006576D-04  0.12882825D-05 -0.13978951D-05 -0.25650723D-10
  0.40945214D-04  0.73859324D-04  0.10888811D-03 -0.16791556D-04  0.12919670D-04
  0.39852262D-05 -0.53076686D-05 -0.18434569D-05  0.51109831D-04  0.92194843D-04
  0.13591950D-03 -0.25319388D-04  0.14996151D-04  0.28933935D-05 -0.42594747D-05
  0.37672632D-05  0.56321772D-04  0.10159644D-03  0.14977993D-03 -0.29894212D-04
  0.15898477D-04 -0.34407370D-07  0.18752560D-06 -0.19749092D-10  0.51109706D-04
  0.92194618D-04  0.13591917D-03 -0.25319234D-04  0.14996126D-04  0.28933902D-05
 -0.42594701D-05 -0.37673807D-05  0.40945183D-04  0.73859269D-04  0.10888803D-03
 -0.16791534D-04  0.12919659D-04  0.39852126D-05 -0.53076504D-05  0.18434621D-05
MO    2     MO 0.0        OCC NO =    2.0000000  ORB. ENERGY =  -11.233571
 -0.35319451D-05 -0.65750436D-05 -0.10815885D-04 -0.14523918D-04 -0.13674816D-04
 -0.11237507D-05 -0.30091426D-05 -0.79958554D-05  0.10778972D-07 -0.28107010D-09
 -0.26301236D-09 -0.20371324D-09  0.22942904D-09  0.21468906D-09  0.16628497D-09
 -0.48395811D-03 -0.45286555D-03 -0.35076187D-03 -0.15268816D-07 -0.75017315D-09
  0.10937871D-08 -0.48909801D-04 -0.62667271D-09  0.77639768D-10 -0.11016835D-09
  0.46181101D-04  0.12309459D-08  0.55613646D-09 -0.17870824D-08  0.21229168D-08
 -0.67247208D-04  0.91964028D-04  0.20761514D+00  0.38649486D+00  0.63578041D+00
  0.85374638D+00  0.80383440D+00  0.66056424D-01  0.17688741D+00  0.47002296D+00
 -0.63362379D-03  0.13982907D-03  0.13084556D-03  0.10134494D-03 -0.18521491D-03
 -0.17331552D-03 -0.13423957D-03 -0.13560090D-03 -0.12688903D-03 -0.98280459D-04
  0.88800063D-03  0.34435296D-04 -0.50047681D-04  0.51535752D-04  0.35360333D-04
 -0.15708937D-04  0.22047287D-04 -0.30012046D-06 -0.42743570D-04  0.29897379D-04
  0.12846191D-04 -0.21888666D-03 -0.26730032D-04  0.38009758D-04  0.23011075D+00
  0.42837253D+00  0.70466878D+00  0.94625191D+00  0.89093184D+00  0.73213801D-01
  0.19605838D+00  0.52096383D+00 -0.70229564D-03 -0.11124294D-03 -0.10409598D-03
 -0.80626363D-04  0.15663666D-03  0.14657332D-03  0.11352670D-03 -0.15032856D-03
 -0.14067049D-03 -0.10895473D-03  0.97194969D-03 -0.36639502D-04  0.50652694D-04
  0.57706647D-04  0.30899317D-04  0.16697934D-04 -0.23377605D-04 -0.39959873D-05
 -0.52324049D-04  0.30401298D-04  0.21922751D-04 -0.24470029D-03  0.29492884D-04
 -0.41910142D-04  0.27794344D-05  0.51741750D-05  0.85114693D-05  0.11429475D-04
  0.10761281D-04  0.88432613D-06  0.23681360D-05  0.62925808D-05 -0.84828385D-08
  0.32324716D-09  0.30247970D-09  0.23428222D-09 -0.43800843D-09 -0.40986797D-09
 -0.31745858D-09 -0.53390926D-03 -0.49960752D-03 -0.38696534D-03  0.11693786D-07
 -0.59410554D-09  0.83438096D-09 -0.56031661D-04  0.74146098D-09  0.85893529D-10
 -0.11962716D-09  0.46125404D-04 -0.10726717D-08 -0.44937624D-09  0.15220480D-08
 -0.18392522D-08  0.71051001D-04 -0.99004795D-04 -0.23010839D+00 -0.42836813D+00
 -0.70466154D+00 -0.94624219D+00 -0.89092269D+00 -0.73213048D-01 -0.19605637D+00
 -0.52095848D+00  0.70228842D-03  0.11124922D-03  0.10410186D-03  0.80630914D-04
 -0.15664539D-03 -0.14658149D-03 -0.11353303D-03 -0.15033371D-03 -0.14067531D-03
 -0.10895847D-03 -0.97193997D-03  0.36639883D-04 -0.50653238D-04  0.57705589D-04
 -0.30899076D-04 -0.16698334D-04  0.23378166D-04 -0.39951271D-05  0.52322981D-04
 -0.30401941D-04 -0.21921040D-04  0.24469899D-03  0.29491870D-04 -0.41908735D-04
 -0.20761968D+00 -0.38650330D+00 -0.63579430D+00 -0.85376503D+00 -0.80385196D+00
 -0.66057867D-01 -0.17689127D+00 -0.47003323D+00  0.63363763D-03 -0.13982357D-03
 -0.13084041D-03 -0.10134095D-03  0.18520706D-03  0.17330817D-03  0.13423388D-03
 -0.13559583D-03 -0.12688428D-03 -0.98276782D-04 -0.88802001D-03 -0.34435168D-04
  0.50047555D-04  0.51537792D-04 -0.35360311D-04  0.15708545D-04 -0.22046744D-04
 -0.30101186D-06  0.42745132D-04 -0.29896892D-04 -0.12848240D-04  0.21888983D-03
 -0.26731575D-04  0.38011919D-04 -0.92402148D-09 -0.16668029D-08 -0.24573069D-08
  0.73302671D-09 -0.21330005D-09  0.43639257D-10 -0.64809754D-10 -0.47196938D-04
  0.54224071D-04  0.97812488D-04  0.14420139D-03 -0.47092362D-04  0.10945980D-04
  0.10649418D-04 -0.14794382D-04 -0.17584483D-04  0.59738601D-04  0.10775991D-03
  0.15886652D-03 -0.51128502D-04  0.11139227D-04 -0.99683975D-05  0.13834917D-04
 -0.17593479D-04  0.72506021D-09  0.13079052D-08  0.19281970D-08 -0.62342102D-09
  0.13709237D-09  0.28110089D-10 -0.39013460D-10 -0.48788242D-04 -0.59737980D-04
 -0.10775879D-03 -0.15886487D-03  0.51127744D-04 -0.11139160D-04  0.99689969D-05
 -0.13835755D-04 -0.17593794D-04 -0.54225246D-04 -0.97814608D-04 -0.14420452D-03
  0.47093310D-04 -0.10946201D-04 -0.10648857D-04  0.14793608D-04 -0.17584079D-04
MO    3     MO 0.0        OCC NO =    2.0000000  ORB. ENERGY =  -11.233539
  0.26159981D+00  0.48699234D+00  0.80109781D+00  0.10757399D+01  0.10128497D+01
  0.83232601D-01  0.22287896D+00  0.59223113D+00 -0.79836893D-03  0.15296024D-04
  0.14313310D-04  0.11086212D-04 -0.93155754D-05 -0.87170834D-05 -0.67517180D-05
 -0.64837823D-08 -0.60672227D-08 -0.46992985D-08  0.11281168D-02  0.54903928D-04
 -0.80101969D-04 -0.60619181D-09  0.38242651D-04 -0.86923580D-05  0.12214153D-04
  0.60128371D-09 -0.90762400D-04 -0.39191885D-04  0.12995429D-03 -0.16214363D-03
 -0.86716627D-09  0.11855530D-08  0.16111843D+00  0.29993692D+00  0.49339342D+00
  0.66254455D+00  0.62381067D+00  0.51262675D-01  0.13727304D+00  0.36476017D+00
 -0.49172219D-03 -0.20552081D-03 -0.19231684D-03 -0.14895683D-03  0.29287463D-03
  0.27405849D-03  0.21226889D-03  0.19672983D-03  0.18409065D-03  0.14258533D-03
  0.68822983D-03 -0.52953219D-05  0.54693954D-05  0.72442555D-04  0.12618879D-04
  0.16725620D-04 -0.23125692D-04 -0.29289747D-04 -0.55689123D-04 -0.17993437D-04
  0.73682560D-04 -0.11091366D-03 -0.60914103D-04  0.85245550D-04 -0.89946356D-01
 -0.16744349D+00 -0.27544297D+00 -0.36987368D+00 -0.34825001D+00 -0.28618022D-01
 -0.76636633D-01 -0.20363788D+00  0.27451809D-03 -0.23706385D-03 -0.22183335D-03
 -0.17181851D-03  0.32968213D-03  0.30850125D-03  0.23894614D-03 -0.21739970D-03
 -0.20343255D-03 -0.15756638D-03 -0.37777352D-03 -0.15250197D-04  0.21719258D-04
 -0.50208632D-04 -0.22787022D-04  0.17565780D-04 -0.24671603D-04  0.26633108D-04
  0.38827149D-04  0.24194982D-04 -0.63022131D-04  0.44792261D-04 -0.50195327D-04
  0.69746173D-04 -0.23574642D+00 -0.43886384D+00 -0.72192688D+00 -0.96942664D+00
 -0.91275173D+00 -0.75006886D-01 -0.20086362D+00 -0.53373225D+00  0.71950836D-03
 -0.32871307D-04 -0.30759444D-04 -0.23824378D-04  0.44797703D-04  0.41919612D-04
  0.32468360D-04 -0.70106828D-08 -0.65602718D-08 -0.50811841D-08 -0.98693456D-03
  0.46893977D-04 -0.65919599D-04 -0.81855250D-09 -0.39228092D-04 -0.11679288D-04
  0.16307728D-04  0.60222593D-09  0.88310601D-04  0.32744983D-04 -0.12105558D-03
  0.16401061D-03  0.10164771D-08 -0.14169508D-08 -0.89952409D-01 -0.16745476D+00
 -0.27546150D+00 -0.36989857D+00 -0.34827345D+00 -0.28619948D-01 -0.76641791D-01
 -0.20365159D+00  0.27453657D-03 -0.23706096D-03 -0.22183065D-03 -0.17181641D-03
  0.32967807D-03  0.30849745D-03  0.23894320D-03  0.21739581D-03  0.20342892D-03
  0.15756356D-03 -0.37779908D-03 -0.15249209D-04  0.21717892D-04  0.50210125D-04
 -0.22787795D-04  0.17565341D-04 -0.24670988D-04 -0.26633230D-04  0.38828509D-04
  0.24194166D-04 -0.63022674D-04  0.44798698D-04  0.50196116D-04 -0.69747293D-04
  0.16111299D+00  0.29992679D+00  0.49337675D+00  0.66252218D+00  0.62378960D+00
  0.51260944D-01  0.13726840D+00  0.36474785D+00 -0.49170559D-03 -0.20552447D-03
 -0.19232027D-03 -0.14895948D-03  0.29287948D-03  0.27406304D-03  0.21227241D-03
 -0.19673332D-03 -0.18409392D-03 -0.14258785D-03  0.68820655D-03 -0.52962098D-05
  0.54706867D-05 -0.72441192D-04  0.12617947D-04  0.16726027D-04 -0.23126263D-04
  0.29289741D-04 -0.55687995D-04 -0.17994208D-04  0.73682203D-04 -0.11090793D-03
  0.60913401D-04 -0.85244552D-04  0.68350739D-04  0.12329498D-03  0.18176930D-03
 -0.56641956D-04  0.14778037D-04 -0.41023488D-05  0.59083319D-05 -0.61930229D-09
  0.41904830D-04  0.75590334D-04  0.11144008D-03 -0.32944484D-04  0.85501268D-05
 -0.21343709D-04  0.29474791D-04  0.16768788D-04 -0.23514565D-04 -0.42416920D-04
 -0.62533721D-04  0.23403593D-04 -0.39524401D-05 -0.22098242D-04  0.30904268D-04
 -0.17891856D-04 -0.61173567D-04 -0.11034839D-03 -0.16268261D-03  0.55119315D-04
 -0.10538543D-04 -0.45702786D-05  0.63074062D-05 -0.65686423D-09 -0.23516132D-04
 -0.42419747D-04 -0.62537888D-04  0.23404929D-04 -0.39527300D-05 -0.22097978D-04
  0.30903902D-04  0.17891402D-04  0.41903410D-04  0.75587772D-04  0.11143630D-03
 -0.32943250D-04  0.85498379D-05 -0.21343984D-04  0.29475173D-04 -0.16769252D-04
MO    4     MO 0.0        OCC NO =    2.0000000  ORB. ENERGY =  -11.232328
 -0.34215505D-04 -0.63695339D-04 -0.10477823D-03 -0.14069958D-03 -0.13247396D-03
 -0.10886267D-04 -0.29158181D-04 -0.77478746D-04  0.10444676D-06  0.24939787D-07
  0.23337496D-07  0.18075793D-07 -0.36248236D-07 -0.33919418D-07 -0.26271900D-07
  0.53452578D-03  0.50018443D-03  0.38741218D-03 -0.13113799D-06 -0.57321047D-08
  0.84449707D-08  0.54727180D-04  0.14887433D-08  0.24357563D-08 -0.33965790D-08
 -0.49038388D-05  0.15261981D-07  0.41100881D-08 -0.19372069D-07  0.34592568D-07
  0.44956105D-04 -0.61274804D-04 -0.23016301D+00 -0.42846980D+00 -0.70482879D+00
 -0.94646677D+00 -0.89113415D+00 -0.73230425D-01 -0.19614686D+00 -0.52119892D+00
  0.70261256D-03  0.20992861D-03  0.19644146D-03  0.15215150D-03 -0.30274976D-03
 -0.28329918D-03 -0.21942616D-03  0.16028113D-03  0.14998364D-03  0.11616813D-03
 -0.87420138D-03 -0.48576015D-05  0.91979362D-05 -0.70198575D-04  0.43205022D-04
  0.12405384D-04 -0.17390711D-04  0.36542378D-04  0.92718706D-04  0.20544829D-05
 -0.94773188D-04  0.27107872D-03  0.38314808D-04 -0.54601592D-04  0.20771423D+00
  0.38667931D+00  0.63608383D+00  0.85415383D+00  0.80421803D+00  0.66087949D-01
  0.17702012D+00  0.47037562D+00 -0.63409919D-03  0.22867627D-03  0.21398465D-03
  0.16573938D-03 -0.31684131D-03 -0.29648540D-03 -0.22963940D-03 -0.14532416D-03
 -0.13598761D-03 -0.10532766D-03  0.77787386D-03 -0.28744493D-05  0.35837994D-05
  0.63898477D-04 -0.46725452D-04  0.10753050D-04 -0.14928909D-04 -0.36306337D-04
 -0.87917851D-04 -0.47208529D-05  0.92638704D-04 -0.24670294D-03  0.35337834D-04
 -0.49406594D-04 -0.38462679D-04 -0.71601847D-04 -0.11778436D-03 -0.15816463D-03
 -0.14891796D-03 -0.12237581D-04 -0.32779312D-04 -0.87100770D-04  0.11741792D-06
 -0.36151941D-07 -0.33829310D-07 -0.26202108D-07  0.50408007D-07  0.47169475D-07
  0.36534582D-07 -0.48041485D-03 -0.44954993D-03 -0.34819380D-03 -0.14361021D-06
  0.60599133D-08 -0.85749697D-08 -0.50547164D-04  0.13279216D-07 -0.54933084D-08
  0.76638579D-08  0.33500937D-07  0.17276622D-07  0.25456555D-08 -0.19822278D-07
  0.43433169D-07  0.37624455D-04 -0.52171656D-04 -0.20766833D+00 -0.38659388D+00
 -0.63594329D+00 -0.85396511D+00 -0.80404034D+00 -0.66073347D-01 -0.17698101D+00
 -0.47027168D+00  0.63395908D-03 -0.22871445D-03 -0.21402037D-03 -0.16576705D-03
  0.31689513D-03  0.29653577D-03  0.22967841D-03 -0.14520298D-03 -0.13587421D-03
 -0.10523983D-03 -0.77770148D-03  0.28644002D-05 -0.35699746D-05  0.63893903D-04
  0.46707371D-04 -0.10749428D-04  0.14923905D-04 -0.36295460D-04  0.87901796D-04
  0.47261740D-05 -0.92627970D-04  0.24663982D-03  0.35339042D-04 -0.49408071D-04
  0.23018788D+00  0.42851611D+00  0.70490497D+00  0.94656907D+00  0.89123046D+00
  0.73238340D-01  0.19616806D+00  0.52125525D+00 -0.70268850D-03 -0.20987102D-03
 -0.19638756D-03 -0.15210976D-03  0.30267079D-03  0.28322529D-03  0.21936893D-03
  0.16037770D-03  0.15007401D-03  0.11623812D-03  0.87429502D-03  0.48664857D-05
 -0.92104792D-05 -0.70198052D-04 -0.43201445D-04 -0.12406331D-04  0.17392030D-04
  0.36542698D-04 -0.92725278D-04 -0.20478469D-05  0.94773125D-04 -0.27111878D-03
  0.38314144D-04 -0.54600979D-04 -0.85633140D-08 -0.15446997D-07 -0.22772945D-07
  0.60584858D-08 -0.70913792D-09  0.49998938D-09 -0.65051570D-09  0.20980376D-04
 -0.57473120D-04 -0.10367331D-03 -0.15284178D-03  0.44253202D-04 -0.20545958D-05
  0.61253324D-05 -0.81843361D-05  0.23427162D-05  0.51558862D-04  0.93004831D-04
  0.13711364D-03 -0.39070077D-04  0.93020540D-06  0.70633226D-05 -0.98112382D-05
 -0.43780692D-06 -0.95410044D-08 -0.17210611D-07 -0.25372977D-07  0.77187398D-08
  0.15764313D-09 -0.83985799D-09  0.11487516D-08 -0.15827829D-04 -0.51547431D-04
 -0.92984212D-04 -0.13708324D-03  0.39060178D-04 -0.93055704D-06 -0.70647132D-05
  0.98131330D-05 -0.43418344D-06  0.57479294D-04  0.10368445D-03  0.15285820D-03
 -0.44256882D-04  0.20553441D-05 -0.61227596D-05  0.81808177D-05  0.23456207D-05
MO    5     MO 0.0        OCC NO =    2.0000000  ORB. ENERGY =  -11.232323
  0.23700443D+00  0.44120574D+00  0.72577930D+00  0.97459979D+00  0.91762244D+00
  0.75407144D-01  0.20197348D+00  0.53668136D+00 -0.72348396D-03 -0.17347034D-03
 -0.16232550D-03 -0.12572737D-03  0.25208039D-03  0.23588513D-03  0.18270215D-03
  0.76915628D-07  0.71974077D-07  0.55746705D-07  0.90797169D-03  0.39607048D-04
 -0.58359700D-04  0.78785615D-08 -0.11182551D-04 -0.17136377D-04  0.23892151D-04
 -0.68353382D-09 -0.10572934D-03 -0.28356158D-04  0.13408550D-03 -0.24000548D-03
  0.64594611D-08 -0.88038960D-08 -0.87120413D-01 -0.16218273D+00 -0.26678907D+00
 -0.35825295D+00 -0.33730866D+00 -0.27718898D-01 -0.74245038D-01 -0.19728297D+00
  0.26595122D-03 -0.19908122D-03 -0.18629097D-03 -0.14428956D-03  0.27288577D-03
  0.25535385D-03  0.19778142D-03  0.33478862D-03  0.31327966D-03  0.24264720D-03
 -0.32826064D-03 -0.30882031D-04  0.43606042D-04  0.16006074D-05 -0.11293386D-04
  0.34316878D-05 -0.47816411D-05  0.14993502D-05  0.23085636D-04 -0.22993286D-04
 -0.92350716D-07  0.13973807D-03 -0.23356370D-05  0.21677117D-05 -0.15890770D+00
 -0.29582144D+00 -0.48662348D+00 -0.65345366D+00 -0.61525126D+00 -0.50559292D-01
 -0.13542561D+00 -0.35985121D+00  0.48510457D-03  0.13271215D-03  0.12418588D-03
  0.96186762D-04 -0.18711089D-03 -0.17508969D-03 -0.13561373D-03  0.41875480D-03
  0.39185131D-03  0.30350399D-03 -0.59730920D-03  0.34752996D-04 -0.47809313D-04
 -0.16547613D-04  0.61624475D-04 -0.12367307D-04  0.17081304D-04  0.37239387D-04
  0.55482943D-04 -0.18447070D-04 -0.37035873D-04  0.21831433D-03  0.35031653D-05
 -0.41669259D-05  0.26527804D+00  0.49383970D+00  0.81236166D+00  0.10908654D+01
  0.10270909D+01  0.84402894D-01  0.22607983D+00  0.60073644D+00 -0.80983468D-03
  0.25012543D-03  0.23405578D-03  0.18128525D-03 -0.34876312D-03 -0.32635635D-03
 -0.25277561D-03 -0.69779986D-07 -0.65296874D-07 -0.50574953D-07  0.99018705D-03
 -0.41975588D-04  0.59393919D-04 -0.70995180D-08 -0.90871945D-04  0.37721628D-04
 -0.52624508D-04  0.56756797D-11 -0.11941469D-03 -0.17747105D-04  0.13716180D-03
 -0.29975324D-03  0.53223904D-08 -0.73780852D-08 -0.15896791D+00 -0.29593352D+00
 -0.48680785D+00 -0.65370124D+00 -0.61548436D+00 -0.50578447D-01 -0.13547692D+00
 -0.35998755D+00  0.48528837D-03  0.13264628D-03  0.12412423D-03  0.96139016D-04
 -0.18701962D-03 -0.17500428D-03 -0.13554758D-03 -0.41879716D-03 -0.39189096D-03
 -0.30353469D-03 -0.59753479D-03  0.34753782D-04 -0.47810284D-04  0.16566403D-04
  0.61637942D-04 -0.12370407D-04  0.17085608D-04 -0.37249884D-04  0.55508427D-04
 -0.18445687D-04 -0.37062739D-04  0.21838579D-03 -0.34927282D-05  0.41523330D-05
 -0.87054077D-01 -0.16205925D+00 -0.26658593D+00 -0.35798017D+00 -0.33705182D+00
 -0.27697792D-01 -0.74188506D-01 -0.19713275D+00  0.26574872D-03 -0.19914199D-03
 -0.18634784D-03 -0.14433360D-03  0.27297340D-03  0.25543584D-03  0.19784493D-03
 -0.33474242D-03 -0.31323643D-03 -0.24261372D-03 -0.32800879D-03 -0.30880689D-04
  0.43603471D-04 -0.16208396D-05 -0.11305866D-04  0.34281300D-05 -0.47766534D-05
 -0.14887933D-05  0.23058872D-04 -0.22993927D-04 -0.64944252D-07  0.13965997D-03
  0.23467165D-05 -0.21834999D-05  0.59312992D-04  0.10699218D-03  0.15773467D-03
 -0.42117740D-04  0.48165602D-05 -0.35060746D-05  0.45578562D-05  0.30087511D-08
 -0.21629329D-04 -0.39016223D-04 -0.57520197D-04  0.13000326D-04 -0.25703066D-05
 -0.88895645D-05  0.12157914D-04  0.10114607D-04 -0.39556520D-04 -0.71354318D-04
 -0.10519507D-03  0.33909292D-04  0.11210178D-05  0.48790754D-05 -0.66487876D-05
  0.12218989D-04  0.65801358D-04  0.11869626D-03  0.17498958D-03 -0.53022463D-04
 -0.10778428D-05  0.56738052D-05 -0.77599369D-05 -0.22940001D-08 -0.39571464D-04
 -0.71381275D-04 -0.10523481D-03  0.33920550D-04  0.11207438D-05  0.48770582D-05
 -0.66459855D-05 -0.12219028D-04 -0.21612767D-04 -0.38986347D-04 -0.57476152D-04
  0.12987578D-04 -0.25697182D-05 -0.88913540D-05  0.12160306D-04 -0.10113949D-04
MO    6     MO 0.0        OCC NO =    2.0000000  ORB. ENERGY =  -11.231699
  0.22111864D+00  0.41163287D+00  0.67713220D+00  0.90927490D+00  0.85611659D+00
  0.70352800D-01  0.18845698D+00  0.50076550D+00 -0.67506687D-03 -0.25938198D-03
 -0.24271763D-03 -0.18799419D-03  0.37036009D-03  0.34656580D-03  0.26842860D-03
 -0.13707374D-09 -0.12826725D-09 -0.99347945D-10  0.81215958D-03  0.31259886D-04
 -0.46484899D-04  0.44015805D-10 -0.23788345D-03 -0.72201958D-04  0.99936465D-04
 -0.24826010D-10 -0.89462969D-04  0.64668376D-05  0.82996132D-04 -0.29622274D-03
  0.33689874D-10 -0.46732826D-10 -0.19461155D+00 -0.36228746D+00 -0.59595947D+00
 -0.80027355D+00 -0.75348771D+00 -0.61919102D-01 -0.16586851D+00 -0.44074368D+00
  0.59415327D-03  0.79094562D-04  0.74013023D-04  0.57325947D-04 -0.11882517D-03
 -0.11119108D-03 -0.86121792D-04  0.40350738D-03  0.37758349D-03  0.29245301D-03
 -0.70773691D-03 -0.16447073D-04  0.24473183D-04 -0.37601758D-04  0.23480110D-03
  0.35339184D-04 -0.48902409D-04  0.10251419D-03  0.87514083D-04  0.59504177D-05
 -0.93464501D-04  0.24570462D-03 -0.23577865D-04  0.31237716D-04  0.15536982D+00
  0.28923534D+00  0.47578941D+00  0.63890532D+00  0.60155345D+00  0.49433651D-01
  0.13242546D+00  0.35187924D+00 -0.47435780D-03  0.13781283D-03  0.12895886D-03
  0.99883618D-04 -0.19064149D-03 -0.17839346D-03 -0.13817263D-03 -0.28017477D-03
 -0.26217456D-03 -0.20306433D-03  0.55990617D-03 -0.71537231D-05  0.96483269D-05
  0.34462085D-04 -0.22675829D-03  0.32599102D-04 -0.45446040D-04 -0.96377489D-04
 -0.75228630D-04 -0.11936828D-04  0.87165458D-04 -0.18726930D-03 -0.22454894D-04
  0.31282635D-04 -0.13919229D+00 -0.25911936D+00 -0.42624892D+00 -0.57238076D+00
 -0.53891806D+00 -0.44286485D-01 -0.11863793D+00 -0.31524320D+00  0.42496985D-03
 -0.19314888D-03 -0.18073976D-03 -0.13998993D-03  0.27017483D-03  0.25281708D-03
  0.19581660D-03  0.52176341D-09  0.48824200D-09  0.37816230D-09 -0.50041268D-03
  0.18285173D-04 -0.25842419D-04 -0.92077436D-10  0.22152111D-03 -0.62763399D-04
  0.87890601D-04 -0.61908185D-11  0.53935228D-04 -0.16115373D-04 -0.37819855D-04
  0.20680710D-03  0.35410042D-10 -0.50260224D-10  0.15537018D+00  0.28923601D+00
  0.47579051D+00  0.63890681D+00  0.60155484D+00  0.49433766D-01  0.13242577D+00
  0.35188006D+00 -0.47435890D-03  0.13781284D-03  0.12895886D-03  0.99883625D-04
 -0.19064150D-03 -0.17839347D-03 -0.13817264D-03  0.28017518D-03  0.26217494D-03
  0.20306462D-03  0.55990763D-03 -0.71537134D-05  0.96483123D-05 -0.34462394D-04
 -0.22675832D-03  0.32599108D-04 -0.45446049D-04  0.96377525D-04 -0.75228763D-04
 -0.11936831D-04  0.87165594D-04 -0.18726969D-03  0.22454700D-04 -0.31282363D-04
 -0.19461155D+00 -0.36228747D+00 -0.59595949D+00 -0.80027357D+00 -0.75348773D+00
 -0.61919103D-01 -0.16586851D+00 -0.44074369D+00  0.59415328D-03  0.79094794D-04
  0.74013239D-04  0.57326115D-04 -0.11882549D-03 -0.11119139D-03 -0.86122026D-04
 -0.40350750D-03 -0.37758360D-03 -0.29245309D-03 -0.70773684D-03 -0.16447014D-04
  0.24473102D-04  0.37601809D-04  0.23480114D-03  0.35339169D-04 -0.48902389D-04
 -0.10251423D-03  0.87514133D-04  0.59504648D-05 -0.93464598D-04  0.24570463D-03
  0.23577838D-04 -0.31237678D-04  0.54902247D-04  0.99035820D-04  0.14600490D-03