 title                                                   
GAUSSIAN             50 MOL ORBITALS    440 PRIMITIVES       26 NUCLEI
  C    1    (CENTRE  1)  -3.87132822  1.79246394 -0.27234625  CHARGE =  6.0
  C    2    (CENTRE  2)  -2.84326993  0.06193180  1.43472679  CHARGE =  6.0
  C    3    (CENTRE  3)  -4.13678442 -2.16340549  1.98912473  CHARGE =  6.0
  C    4    (CENTRE  4)  -6.45499120 -2.68049748  0.85759182  CHARGE =  6.0
  C    5    (CENTRE  5)  -7.47554145 -0.94329412 -0.84068512  CHARGE =  6.0
  C    6    (CENTRE  6)  -6.19558607  1.28056531 -1.40856652  CHARGE =  6.0
  O    7    (CENTRE  7)  -2.70234094  3.99589722 -0.90496950  CHARGE =  8.0
  H    8    (CENTRE  8)  -6.96303545  2.64206354 -2.72409301  CHARGE =  1.0
  H    9    (CENTRE  9)  -1.06830887  4.06165902 -0.07980200  CHARGE =  1.0
  H   10    (CENTRE 10)  -1.04343800  0.45607001  2.32150621  CHARGE =  1.0
  H   11    (CENTRE 11)  -3.31954299 -3.49119504  3.31093950  CHARGE =  1.0
  H   12    (CENTRE 12)  -7.45304189 -4.40816863  1.29262252  CHARGE =  1.0
  H   13    (CENTRE 13)  -9.27588449 -1.31829031 -1.73269110  CHARGE =  1.0
  C   14    (CENTRE 14)   3.77087821  1.83528213  0.21501426  CHARGE =  6.0
  C   15    (CENTRE 15)   2.92697896  0.48069145 -1.87684588  CHARGE =  6.0
  C   16    (CENTRE 16)   4.15782227 -1.74287899 -2.54844670  CHARGE =  6.0
  C   17    (CENTRE 17)   6.21730437 -2.61136682 -1.15392773  CHARGE =  6.0
  C   18    (CENTRE 18)   7.04522480 -1.23778076  0.93139983  CHARGE =  6.0
  C   19    (CENTRE 19)   5.82219328  0.98839258  1.62569518  CHARGE =  6.0
  O   20    (CENTRE 20)   2.47857370  4.01180904  0.82495035  CHARGE =  8.0
  H   21    (CENTRE 21)   3.29336299  4.78749864  2.25622506  CHARGE =  1.0
  H   22    (CENTRE 22)   1.32855107  1.17443334 -2.94348888  CHARGE =  1.0
  H   23    (CENTRE 23)   3.49719204 -2.79733928 -4.16864781  CHARGE =  1.0
  H   24    (CENTRE 24)   7.16491808 -4.33969815 -1.68645840  CHARGE =  1.0
  H   25    (CENTRE 25)   8.64030375 -1.89034112  2.02861209  CHARGE =  1.0
  H   26    (CENTRE 26)   6.45979037  2.05549817  3.25256057  CHARGE =  1.0
CENTRE ASSIGNMENTS    1  1  1  1  1  1  1  1  1  1  1  1  1  1  1  1  1  1  1  1
CENTRE ASSIGNMENTS    1  1  1  1  1  1  1  1  2  2  2  2  2  2  2  2  2  2  2  2
CENTRE ASSIGNMENTS    2  2  2  2  2  2  2  2  2  2  2  2  2  2  2  2  3  3  3  3
CENTRE ASSIGNMENTS    3  3  3  3  3  3  3  3  3  3  3  3  3  3  3  3  3  3  3  3
CENTRE ASSIGNMENTS    3  3  3  3  4  4  4  4  4  4  4  4  4  4  4  4  4  4  4  4
CENTRE ASSIGNMENTS    4  4  4  4  4  4  4  4  4  4  4  4  5  5  5  5  5  5  5  5
CENTRE ASSIGNMENTS    5  5  5  5  5  5  5  5  5  5  5  5  5  5  5  5  5  5  5  5
CENTRE ASSIGNMENTS    6  6  6  6  6  6  6  6  6  6  6  6  6  6  6  6  6  6  6  6
CENTRE ASSIGNMENTS    6  6  6  6  6  6  6  6  7  7  7  7  7  7  7  7  7  7  7  7
CENTRE ASSIGNMENTS    7  7  7  7  7  7  7  7  7  7  7  7  7  7  7  7  8  8  8  8
CENTRE ASSIGNMENTS    9  9  9  9 10 10 10 10 11 11 11 11 12 12 12 12 13 13 13 13
CENTRE ASSIGNMENTS   14 14 14 14 14 14 14 14 14 14 14 14 14 14 14 14 14 14 14 14
CENTRE ASSIGNMENTS   14 14 14 14 14 14 14 14 15 15 15 15 15 15 15 15 15 15 15 15
CENTRE ASSIGNMENTS   15 15 15 15 15 15 15 15 15 15 15 15 15 15 15 15 16 16 16 16
CENTRE ASSIGNMENTS   16 16 16 16 16 16 16 16 16 16 16 16 16 16 16 16 16 16 16 16
CENTRE ASSIGNMENTS   16 16 16 16 17 17 17 17 17 17 17 17 17 17 17 17 17 17 17 17
CENTRE ASSIGNMENTS   17 17 17 17 17 17 17 17 17 17 17 17 18 18 18 18 18 18 18 18
CENTRE ASSIGNMENTS   18 18 18 18 18 18 18 18 18 18 18 18 18 18 18 18 18 18 18 18
CENTRE ASSIGNMENTS   19 19 19 19 19 19 19 19 19 19 19 19 19 19 19 19 19 19 19 19
CENTRE ASSIGNMENTS   19 19 19 19 19 19 19 19 20 20 20 20 20 20 20 20 20 20 20 20
CENTRE ASSIGNMENTS   20 20 20 20 20 20 20 20 20 20 20 20 20 20 20 20 21 21 21 21
CENTRE ASSIGNMENTS   22 22 22 22 23 23 23 23 24 24 24 24 25 25 25 25 26 26 26 26
TYPE ASSIGNMENTS      1  1  1  1  1  1  1  1  1  2  2  2  3  3  3  4  4  4  1  2
TYPE ASSIGNMENTS      3  4  5  6  7  8  9 10  1  1  1  1  1  1  1  1  1  2  2  2
TYPE ASSIGNMENTS      3  3  3  4  4  4  1  2  3  4  5  6  7  8  9 10  1  1  1  1
TYPE ASSIGNMENTS      1  1  1  1  1  2  2  2  3  3  3  4  4  4  1  2  3  4  5  6
TYPE ASSIGNMENTS      7  8  9 10  1  1  1  1  1  1  1  1  1  2  2  2  3  3  3  4
TYPE ASSIGNMENTS      4  4  1  2  3  4  5  6  7  8  9 10  1  1  1  1  1  1  1  1
TYPE ASSIGNMENTS      1  2  2  2  3  3  3  4  4  4  1  2  3  4  5  6  7  8  9 10
TYPE ASSIGNMENTS      1  1  1  1  1  1  1  1  1  2  2  2  3  3  3  4  4  4  1  2
TYPE ASSIGNMENTS      3  4  5  6  7  8  9 10  1  1  1  1  1  1  1  1  1  2  2  2
TYPE ASSIGNMENTS      3  3  3  4  4  4  1  2  3  4  5  6  7  8  9 10  1  1  1  1
TYPE ASSIGNMENTS      1  1  1  1  1  1  1  1  1  1  1  1  1  1  1  1  1  1  1  1
TYPE ASSIGNMENTS      1  1  1  1  1  1  1  1  1  2  2  2  3  3  3  4  4  4  1  2
TYPE ASSIGNMENTS      3  4  5  6  7  8  9 10  1  1  1  1  1  1  1  1  1  2  2  2
TYPE ASSIGNMENTS      3  3  3  4  4  4  1  2  3  4  5  6  7  8  9 10  1  1  1  1
TYPE ASSIGNMENTS      1  1  1  1  1  2  2  2  3  3  3  4  4  4  1  2  3  4  5  6
TYPE ASSIGNMENTS      7  8  9 10  1  1  1  1  1  1  1  1  1  2  2  2  3  3  3  4
TYPE ASSIGNMENTS      4  4  1  2  3  4  5  6  7  8  9 10  1  1  1  1  1  1  1  1
TYPE ASSIGNMENTS      1  2  2  2  3  3  3  4  4  4  1  2  3  4  5  6  7  8  9 10
TYPE ASSIGNMENTS      1  1  1  1  1  1  1  1  1  2  2  2  3  3  3  4  4  4  1  2
TYPE ASSIGNMENTS      3  4  5  6  7  8  9 10  1  1  1  1  1  1  1  1  1  2  2  2
TYPE ASSIGNMENTS      3  3  3  4  4  4  1  2  3  4  5  6  7  8  9 10  1  1  1  1
TYPE ASSIGNMENTS      1  1  1  1  1  1  1  1  1  1  1  1  1  1  1  1  1  1  1  1
EXPONENTS  0.3047525D+04 0.4573695D+03 0.1039487D+03 0.2921016D+02 0.9286663D+01
EXPONENTS  0.3163927D+01 0.7868272D+01 0.1881289D+01 0.5442493D+00 0.7868272D+01
EXPONENTS  0.1881289D+01 0.5442493D+00 0.7868272D+01 0.1881289D+01 0.5442493D+00
EXPONENTS  0.7868272D+01 0.1881289D+01 0.5442493D+00 0.1687145D+00 0.1687145D+00
EXPONENTS  0.1687145D+00 0.1687145D+00 0.8000000D+00 0.8000000D+00 0.8000000D+00
EXPONENTS  0.8000000D+00 0.8000000D+00 0.8000000D+00 0.3047525D+04 0.4573695D+03
EXPONENTS  0.1039487D+03 0.2921016D+02 0.9286663D+01 0.3163927D+01 0.7868272D+01
EXPONENTS  0.1881289D+01 0.5442493D+00 0.7868272D+01 0.1881289D+01 0.5442493D+00
EXPONENTS  0.7868272D+01 0.1881289D+01 0.5442493D+00 0.7868272D+01 0.1881289D+01
EXPONENTS  0.5442493D+00 0.1687145D+00 0.1687145D+00 0.1687145D+00 0.1687145D+00
EXPONENTS  0.8000000D+00 0.8000000D+00 0.8000000D+00 0.8000000D+00 0.8000000D+00
EXPONENTS  0.8000000D+00 0.3047525D+04 0.4573695D+03 0.1039487D+03 0.2921016D+02
EXPONENTS  0.9286663D+01 0.3163927D+01 0.7868272D+01 0.1881289D+01 0.5442493D+00
EXPONENTS  0.7868272D+01 0.1881289D+01 0.5442493D+00 0.7868272D+01 0.1881289D+01
EXPONENTS  0.5442493D+00 0.7868272D+01 0.1881289D+01 0.5442493D+00 0.1687145D+00
EXPONENTS  0.1687145D+00 0.1687145D+00 0.1687145D+00 0.8000000D+00 0.8000000D+00
EXPONENTS  0.8000000D+00 0.8000000D+00 0.8000000D+00 0.8000000D+00 0.3047525D+04
EXPONENTS  0.4573695D+03 0.1039487D+03 0.2921016D+02 0.9286663D+01 0.3163927D+01
EXPONENTS  0.7868272D+01 0.1881289D+01 0.5442493D+00 0.7868272D+01 0.1881289D+01
EXPONENTS  0.5442493D+00 0.7868272D+01 0.1881289D+01 0.5442493D+00 0.7868272D+01
EXPONENTS  0.1881289D+01 0.5442493D+00 0.1687145D+00 0.1687145D+00 0.1687145D+00
EXPONENTS  0.1687145D+00 0.8000000D+00 0.8000000D+00 0.8000000D+00 0.8000000D+00
EXPONENTS  0.8000000D+00 0.8000000D+00 0.3047525D+04 0.4573695D+03 0.1039487D+03
EXPONENTS  0.2921016D+02 0.9286663D+01 0.3163927D+01 0.7868272D+01 0.1881289D+01
EXPONENTS  0.5442493D+00 0.7868272D+01 0.1881289D+01 0.5442493D+00 0.7868272D+01
EXPONENTS  0.1881289D+01 0.5442493D+00 0.7868272D+01 0.1881289D+01 0.5442493D+00
EXPONENTS  0.1687145D+00 0.1687145D+00 0.1687145D+00 0.1687145D+00 0.8000000D+00
EXPONENTS  0.8000000D+00 0.8000000D+00 0.8000000D+00 0.8000000D+00 0.8000000D+00
EXPONENTS  0.3047525D+04 0.4573695D+03 0.1039487D+03 0.2921016D+02 0.9286663D+01
EXPONENTS  0.3163927D+01 0.7868272D+01 0.1881289D+01 0.5442493D+00 0.7868272D+01
EXPONENTS  0.1881289D+01 0.5442493D+00 0.7868272D+01 0.1881289D+01 0.5442493D+00
EXPONENTS  0.7868272D+01 0.1881289D+01 0.5442493D+00 0.1687145D+00 0.1687145D+00
EXPONENTS  0.1687145D+00 0.1687145D+00 0.8000000D+00 0.8000000D+00 0.8000000D+00
EXPONENTS  0.8000000D+00 0.8000000D+00 0.8000000D+00 0.5484672D+04 0.8252349D+03
EXPONENTS  0.1880470D+03 0.5296450D+02 0.1689757D+02 0.5799635D+01 0.1553962D+02
EXPONENTS  0.3599934D+01 0.1013762D+01 0.1553962D+02 0.3599934D+01 0.1013762D+01
EXPONENTS  0.1553962D+02 0.3599934D+01 0.1013762D+01 0.1553962D+02 0.3599934D+01
EXPONENTS  0.1013762D+01 0.2700058D+00 0.2700058D+00 0.2700058D+00 0.2700058D+00
EXPONENTS  0.8000000D+00 0.8000000D+00 0.8000000D+00 0.8000000D+00 0.8000000D+00
EXPONENTS  0.8000000D+00 0.1873114D+02 0.2825394D+01 0.6401217D+00 0.1612778D+00
EXPONENTS  0.1873114D+02 0.2825394D+01 0.6401217D+00 0.1612778D+00 0.1873114D+02
EXPONENTS  0.2825394D+01 0.6401217D+00 0.1612778D+00 0.1873114D+02 0.2825394D+01
EXPONENTS  0.6401217D+00 0.1612778D+00 0.1873114D+02 0.2825394D+01 0.6401217D+00
EXPONENTS  0.1612778D+00 0.1873114D+02 0.2825394D+01 0.6401217D+00 0.1612778D+00
EXPONENTS  0.3047525D+04 0.4573695D+03 0.1039487D+03 0.2921016D+02 0.9286663D+01
EXPONENTS  0.3163927D+01 0.7868272D+01 0.1881289D+01 0.5442493D+00 0.7868272D+01
EXPONENTS  0.1881289D+01 0.5442493D+00 0.7868272D+01 0.1881289D+01 0.5442493D+00
EXPONENTS  0.7868272D+01 0.1881289D+01 0.5442493D+00 0.1687145D+00 0.1687145D+00
EXPONENTS  0.1687145D+00 0.1687145D+00 0.8000000D+00 0.8000000D+00 0.8000000D+00
EXPONENTS  0.8000000D+00 0.8000000D+00 0.8000000D+00 0.3047525D+04 0.4573695D+03
EXPONENTS  0.1039487D+03 0.2921016D+02 0.9286663D+01 0.3163927D+01 0.7868272D+01
EXPONENTS  0.1881289D+01 0.5442493D+00 0.7868272D+01 0.1881289D+01 0.5442493D+00
EXPONENTS  0.7868272D+01 0.1881289D+01 0.5442493D+00 0.7868272D+01 0.1881289D+01
EXPONENTS  0.5442493D+00 0.1687145D+00 0.1687145D+00 0.1687145D+00 0.1687145D+00
EXPONENTS  0.8000000D+00 0.8000000D+00 0.8000000D+00 0.8000000D+00 0.8000000D+00
EXPONENTS  0.8000000D+00 0.3047525D+04 0.4573695D+03 0.1039487D+03 0.2921016D+02
EXPONENTS  0.9286663D+01 0.3163927D+01 0.7868272D+01 0.1881289D+01 0.5442493D+00
EXPONENTS  0.7868272D+01 0.1881289D+01 0.5442493D+00 0.7868272D+01 0.1881289D+01
EXPONENTS  0.5442493D+00 0.7868272D+01 0.1881289D+01 0.5442493D+00 0.1687145D+00
EXPONENTS  0.1687145D+00 0.1687145D+00 0.1687145D+00 0.8000000D+00 0.8000000D+00
EXPONENTS  0.8000000D+00 0.8000000D+00 0.8000000D+00 0.8000000D+00 0.3047525D+04
EXPONENTS  0.4573695D+03 0.1039487D+03 0.2921016D+02 0.9286663D+01 0.3163927D+01
EXPONENTS  0.7868272D+01 0.1881289D+01 0.5442493D+00 0.7868272D+01 0.1881289D+01
EXPONENTS  0.5442493D+00 0.7868272D+01 0.1881289D+01 0.5442493D+00 0.7868272D+01
EXPONENTS  0.1881289D+01 0.5442493D+00 0.1687145D+00 0.1687145D+00 0.1687145D+00
EXPONENTS  0.1687145D+00 0.8000000D+00 0.8000000D+00 0.8000000D+00 0.8000000D+00
EXPONENTS  0.8000000D+00 0.8000000D+00 0.3047525D+04 0.4573695D+03 0.1039487D+03
EXPONENTS  0.2921016D+02 0.9286663D+01 0.3163927D+01 0.7868272D+01 0.1881289D+01
EXPONENTS  0.5442493D+00 0.7868272D+01 0.1881289D+01 0.5442493D+00 0.7868272D+01
EXPONENTS  0.1881289D+01 0.5442493D+00 0.7868272D+01 0.1881289D+01 0.5442493D+00
EXPONENTS  0.1687145D+00 0.1687145D+00 0.1687145D+00 0.1687145D+00 0.8000000D+00
EXPONENTS  0.8000000D+00 0.8000000D+00 0.8000000D+00 0.8000000D+00 0.8000000D+00
EXPONENTS  0.3047525D+04 0.4573695D+03 0.1039487D+03 0.2921016D+02 0.9286663D+01
EXPONENTS  0.3163927D+01 0.7868272D+01 0.1881289D+01 0.5442493D+00 0.7868272D+01
EXPONENTS  0.1881289D+01 0.5442493D+00 0.7868272D+01 0.1881289D+01 0.5442493D+00
EXPONENTS  0.7868272D+01 0.1881289D+01 0.5442493D+00 0.1687145D+00 0.1687145D+00
EXPONENTS  0.1687145D+00 0.1687145D+00 0.8000000D+00 0.8000000D+00 0.8000000D+00
EXPONENTS  0.8000000D+00 0.8000000D+00 0.8000000D+00 0.5484672D+04 0.8252349D+03
EXPONENTS  0.1880470D+03 0.5296450D+02 0.1689757D+02 0.5799635D+01 0.1553962D+02
EXPONENTS  0.3599934D+01 0.1013762D+01 0.1553962D+02 0.3599934D+01 0.1013762D+01
EXPONENTS  0.1553962D+02 0.3599934D+01 0.1013762D+01 0.1553962D+02 0.3599934D+01
EXPONENTS  0.1013762D+01 0.2700058D+00 0.2700058D+00 0.2700058D+00 0.2700058D+00
EXPONENTS  0.8000000D+00 0.8000000D+00 0.8000000D+00 0.8000000D+00 0.8000000D+00
EXPONENTS  0.8000000D+00 0.1873114D+02 0.2825394D+01 0.6401217D+00 0.1612778D+00
EXPONENTS  0.1873114D+02 0.2825394D+01 0.6401217D+00 0.1612778D+00 0.1873114D+02
EXPONENTS  0.2825394D+01 0.6401217D+00 0.1612778D+00 0.1873114D+02 0.2825394D+01
EXPONENTS  0.6401217D+00 0.1612778D+00 0.1873114D+02 0.2825394D+01 0.6401217D+00
EXPONENTS  0.1612778D+00 0.1873114D+02 0.2825394D+01 0.6401217D+00 0.1612778D+00
MO    1     MO 0.0        OCC NO =    2.0000000  ORB. ENERGY =  -19.205203
 -0.17346938D-05 -0.32001714D-05 -0.51660689D-05 -0.67246867D-05 -0.57381873D-05
 -0.19812582D-05  0.32227308D-05  0.14853537D-05 -0.41650867D-05 -0.47884057D-04
 -0.36714458D-04 -0.18323087D-04 -0.74318648D-05 -0.56982826D-05 -0.28438424D-05
 -0.25820167D-04 -0.19797267D-04 -0.98802236D-05 -0.68927956D-04  0.56960134D-04
  0.87490608D-04 -0.22461251D-04 -0.42117214D-04  0.50940926D-04 -0.17529303D-04
  0.38861551D-04 -0.57460364D-04 -0.87474294D-04 -0.61606625D-05 -0.11365219D-04
 -0.18346988D-04 -0.23882327D-04 -0.20378833D-04 -0.70363213D-05  0.14531361D-04
  0.66974910D-05 -0.18780464D-04 -0.39607622D-04 -0.30368613D-04 -0.15156066D-04
 -0.30295160D-04 -0.23228407D-04 -0.11592603D-04 -0.28872450D-05 -0.22137564D-05
 -0.11048196D-05  0.51895715D-04  0.26208357D-05  0.49716292D-04 -0.30673168D-04
 -0.19946633D-04 -0.30909623D-04 -0.27521952D-04 -0.86084032D-05  0.15261840D-04
 -0.17556877D-04 -0.21446919D-05 -0.39565377D-05 -0.63870786D-05 -0.83140786D-05
 -0.70944184D-05 -0.24495322D-05  0.11056477D-04  0.50959200D-05 -0.14289492D-04
  0.11491250D-04  0.88107616D-05  0.43971875D-05 -0.87850353D-06 -0.67358078D-06
 -0.33616402D-06  0.48433092D-05  0.37135423D-05  0.18533179D-05  0.38589562D-04
  0.77321470D-05  0.21525734D-04 -0.69130217D-05  0.14814341D-05  0.78306181D-05
 -0.52628397D-05  0.13513182D-04  0.82183567D-05 -0.14900435D-04 -0.10229363D-05
 -0.18871177D-05 -0.30463931D-05 -0.39654986D-05 -0.33837672D-05 -0.11683335D-05
  0.31368432D-05  0.14457682D-05 -0.40540848D-05 -0.11728154D-04 -0.89924049D-05
 -0.44878403D-05 -0.26870151D-05 -0.20602328D-05 -0.10282005D-05 -0.59812074D-05
 -0.45860104D-05 -0.22887406D-05  0.17365792D-04  0.13330215D-05  0.31940508D-05
 -0.15106417D-05 -0.38682566D-05 -0.25731283D-05 -0.28937651D-05 -0.43035429D-05
  0.55695708D-05 -0.79004731D-05 -0.43418509D-06 -0.80098671D-06 -0.12930409D-05
 -0.16831551D-05 -0.14362393D-05 -0.49589890D-06  0.48814523D-06  0.22498569D-06
 -0.63088337D-06 -0.76554844D-05 -0.58697398D-05 -0.29294116D-05 -0.15959372D-04
 -0.12236634D-04 -0.61069381D-05  0.39042177D-05  0.29935065D-05  0.14939695D-05
 -0.29578466D-04 -0.13965866D-04  0.12954643D-05 -0.92599691D-05 -0.25476832D-05
 -0.30853308D-05 -0.37274735D-05  0.24592079D-05  0.30943512D-05 -0.21316077D-05
 -0.38355543D-05 -0.70758487D-05 -0.11422614D-04 -0.14868849D-04 -0.12687616D-04
 -0.43807289D-05  0.17957387D-04  0.82765434D-05 -0.23208292D-04  0.12328184D-04
  0.94524698D-05  0.47174449D-05  0.89910673D-05  0.68937802D-05  0.34404795D-05
  0.28528728D-05  0.21874019D-05  0.10916669D-05  0.83862846D-04  0.36164546D-04
 -0.26361275D-04  0.39694508D-04  0.17479140D-04 -0.95294893D-05 -0.37469410D-05
  0.79794618D-05  0.44519084D-04 -0.85893787D-05 -0.51018293D-04 -0.93900893D-04
 -0.15194937D-03 -0.19974170D-03 -0.17131730D-03 -0.58576293D-04  0.20101976D-03
  0.89694626D-04 -0.26486943D-03 -0.19172166D-03 -0.14771120D-03 -0.64853173D-04
 -0.98313309D-04 -0.75745104D-04 -0.33256181D-04 -0.13262238D-03 -0.10217839D-03
 -0.44861819D-04  0.41987598D-03  0.22088822D-03  0.75582063D-04  0.92816545D-04
 -0.11643799D-03 -0.31163109D-03 -0.22428769D-03 -0.89593114D-05  0.19518166D-03
  0.32834780D-04  0.13163649D-05  0.22328041D-05  0.25419685D-05  0.24072997D-04
 -0.38153198D-04 -0.64715045D-04 -0.73675791D-04 -0.38657999D-03  0.87210770D-06
  0.14792597D-05  0.16840849D-05  0.10190205D-04 -0.38441665D-06 -0.65204340D-06
 -0.74232837D-06  0.83620700D-05 -0.51399315D-06 -0.87182967D-06 -0.99254726D-06
  0.16574221D-05 -0.12838382D-05 -0.21776326D-05 -0.24791577D-05 -0.28050855D-05
 -0.11382132D-04 -0.20997811D-04 -0.33896977D-04 -0.44123793D-04 -0.37650912D-04
 -0.12999955D-04 -0.75768473D-04 -0.34921620D-04  0.97923868D-04 -0.35304330D-03
 -0.27069121D-03 -0.13509389D-03  0.50716561D-03  0.38886242D-03  0.19406960D-03
  0.74882221D-04  0.57414937D-04  0.28654078D-04 -0.21772800D-03  0.42110831D-03
 -0.38000038D-03  0.74406532D-04  0.16068726D-04  0.13067297D-03 -0.23017894D-04
 -0.17332221D-03  0.91077771D-05  0.50981870D-04  0.12486347D-06  0.23034872D-06
  0.37185426D-06  0.48404376D-06  0.41303541D-06  0.14261120D-06 -0.35804053D-04
 -0.16502055D-04  0.46273485D-04  0.38360395D-06  0.29412318D-06  0.14678808D-06
  0.36740637D-04  0.28170390D-04  0.14058999D-04  0.90036969D-05  0.69034637D-05
  0.34453122D-05  0.52521173D-04 -0.96232062D-04  0.12172261D-03  0.26368801D-04
 -0.46768419D-04 -0.48328639D-04 -0.35599187D-04  0.54097560D-04 -0.79436338D-04
 -0.42847560D-04  0.64295387D-05  0.11861243D-04  0.19147725D-04  0.24924648D-04
  0.21268247D-04  0.73434147D-05 -0.16833606D-04 -0.77585935D-05  0.21755906D-04
  0.49105269D-05  0.37650806D-05  0.18790391D-05  0.39662854D-04  0.30410961D-04
  0.15177201D-04  0.47283169D-04  0.36253735D-04  0.18093155D-04  0.10845471D-03
 -0.18044489D-04  0.15170459D-04 -0.13749679D-04  0.38428580D-04  0.30742292D-04
  0.15405754D-04 -0.14291188D-04 -0.78104880D-05 -0.38526482D-04  0.59421505D-05
  0.10962107D-04  0.17696240D-04  0.23035247D-04  0.19656018D-04  0.67867506D-05
 -0.22697072D-04 -0.10461060D-04  0.29333904D-04 -0.35508835D-04 -0.27225922D-04
 -0.13587643D-04  0.28694486D-04  0.22001112D-04  0.10980097D-04 -0.17107894D-04
 -0.13117248D-04 -0.65464261D-05 -0.79072492D-04  0.22873788D-04 -0.55105548D-04
 -0.21043356D-04  0.13115520D-04  0.15461451D-04 -0.28519360D-05  0.38663150D-05
 -0.45411955D-04 -0.25772831D-04 -0.20447643D-05 -0.37721908D-05 -0.60894856D-05
 -0.79267009D-05 -0.67638682D-05 -0.23354011D-05  0.16458606D-04  0.75857565D-05
 -0.21271253D-04 -0.45034677D-04 -0.34529734D-04 -0.17232757D-04  0.78697703D-04
  0.60340407D-04  0.30114092D-04  0.18585819D-04  0.14250427D-04  0.71119618D-05
  0.24907863D-03 -0.70625610D-04  0.54389213D-04 -0.26621229D-04  0.47847807D-05
  0.43793312D-04  0.74478268D-05 -0.30636061D-04 -0.23682705D-04  0.42054276D-04
  0.12604264D-04  0.23252407D-04  0.37536594D-04  0.48861492D-04  0.41693600D-04
  0.14395798D-04 -0.86716056D-04 -0.39967351D-04  0.11207262D-03  0.68107225D-04
  0.52220300D-04  0.26061590D-04 -0.68893692D-04 -0.52823313D-04 -0.26362536D-04
  0.20830497D-04  0.15971504D-04  0.79708998D-05 -0.51058362D-03  0.69244289D-04
  0.11755381D-03  0.18346703D-03 -0.30561172D-04 -0.57291292D-04 -0.18052379D-04
  0.13298994D-03 -0.77131454D-04 -0.62599214D-04  0.82558974D+00  0.15195258D+01
  0.24588796D+01  0.32322661D+01  0.27722959D+01  0.94789504D+00 -0.15764557D-01
 -0.70341147D-02  0.20771835D-01  0.28212767D-02  0.21736416D-02  0.95434573D-03
 -0.76707023D-03 -0.59098626D-03 -0.25947480D-03  0.19130974D-02  0.14739384D-02
  0.64713836D-03  0.38743236D-02 -0.11924779D-03 -0.24649511D-03 -0.20691431D-03
 -0.93623226D-02 -0.94377039D-02 -0.94805721D-02  0.73297848D-04 -0.64454525D-04
  0.92139179D-05  0.11559600D-03  0.19607269D-03  0.22322183D-03 -0.19325522D-03
 -0.48265950D-05 -0.81868186D-05 -0.93204036D-05 -0.41816216D-04 -0.43123470D-05
 -0.73145567D-05 -0.83273642D-05 -0.18668531D-04 -0.47376027D-05 -0.80358708D-05
 -0.91485549D-05 -0.23941803D-04  0.14492845D-05  0.24582608D-05  0.27986431D-05
  0.10845177D-04 -0.12798669D-04 -0.21708964D-04 -0.24714889D-04 -0.43910813D-04
MO    2     MO 0.0        OCC NO =    2.0000000  ORB. ENERGY =  -19.154285
 -0.24947149D-04 -0.46022619D-04 -0.74294777D-04 -0.96709724D-04 -0.82522583D-04
 -0.28493065D-04 -0.61393197D-04 -0.28296069D-04  0.79345130D-04  0.18276630D-03
  0.14013361D-03  0.69936490D-04  0.49704349D-03  0.38110142D-03  0.19019632D-03
 -0.18795532D-03 -0.14411222D-03 -0.71922096D-04 -0.62441369D-04 -0.24140142D-03
 -0.57960242D-03  0.20068971D-03 -0.88805455D-04 -0.12662815D-04 -0.55062366D-04
 -0.35260666D-04  0.30631610D-04 -0.12854488D-03  0.12519235D-04  0.23095544D-04
  0.37283369D-04  0.48531869D-04  0.41412332D-04  0.14298683D-04 -0.85779835D-04
 -0.39535847D-04  0.11086264D-03 -0.37292950D-04 -0.28593869D-04 -0.14270345D-04
 -0.11204232D-03 -0.85906943D-04 -0.42873585D-04  0.32071838D-04  0.24590651D-04
  0.12272458D-04 -0.53914194D-03  0.30369401D-03  0.15938538D-03  0.97684811D-04
 -0.36640516D-04 -0.71682674D-04 -0.22562293D-05 -0.77490382D-04 -0.70886000D-04
  0.10319823D-03 -0.47997015D-05 -0.88545121D-05 -0.14293928D-04 -0.18606447D-04
 -0.15876915D-04 -0.54819172D-05  0.29479591D-04  0.13587116D-04 -0.38099693D-04
  0.44909811D-04  0.34433995D-04  0.17184977D-04  0.93115385D-04  0.71394971D-04
  0.35631094D-04 -0.26514927D-04 -0.20329964D-04 -0.10146077D-04  0.39949214D-03
  0.85170547D-05  0.14163740D-03 -0.83964361D-04  0.20701433D-04  0.41677010D-04
 -0.47174298D-05  0.74485547D-04 -0.13119229D-04 -0.16692712D-04  0.82964729D-05
  0.15305372D-04  0.24707617D-04  0.32161976D-04  0.27443872D-04  0.94757095D-05
 -0.32589074D-04 -0.15020274D-04  0.42118417D-04 -0.87102340D-05 -0.66784550D-05
 -0.33330171D-05  0.36611887D-04  0.28071673D-04  0.14009732D-04 -0.28930806D-04
 -0.22182307D-04 -0.11070526D-04 -0.18025242D-03 -0.33678941D-04 -0.98179990D-04
  0.40263196D-04 -0.32176991D-05  0.18343884D-04  0.15118977D-04  0.20689294D-05
 -0.56214943D-04  0.30853720D-04  0.51390872D-05  0.94806124D-05  0.15304648D-04
  0.19922104D-04  0.16999568D-04  0.58695422D-05 -0.10776440D-04 -0.49668512D-05
  0.13927569D-04  0.55708533D-04  0.42713770D-04  0.21317165D-04  0.42146371D-04
  0.32315164D-04  0.16127532D-04  0.95728889D-05  0.73398840D-05  0.36631166D-05
  0.18424475D-03  0.45847257D-04 -0.12786517D-04  0.35329465D-04  0.10813575D-04
  0.41147126D-04  0.37069877D-04 -0.22687874D-04 -0.21329136D-04 -0.17979692D-04
  0.32524917D-05  0.60002121D-05  0.96862027D-05  0.12608558D-04  0.10758905D-04
  0.37147915D-05 -0.53777790D-04 -0.24786134D-04  0.69502908D-04  0.25314053D-04
  0.19409210D-04  0.96865563D-05  0.11590648D-04  0.88869735D-05  0.44352226D-05
  0.79585604D-05  0.61021193D-05  0.30453852D-05 -0.16954802D-03 -0.76673962D-04
  0.14722285D-03 -0.13633289D-03 -0.68482841D-04 -0.49501550D-04 -0.23123758D-04
 -0.42048206D-04 -0.80802151D-04  0.59219488D-04  0.82559720D+00  0.15195396D+01
  0.24589019D+01  0.32322953D+01  0.27723209D+01  0.94790360D+00 -0.15733256D-01
 -0.70201481D-02  0.20730591D-01  0.11804816D-02  0.90949745D-03  0.39931837D-03
 -0.20726462D-02 -0.15968622D-02 -0.70110850D-03  0.18159036D-02  0.13990558D-02
  0.61426085D-03  0.40190851D-02 -0.11188584D-03 -0.25746045D-03  0.88982847D-04
 -0.93233936D-02 -0.93284113D-02 -0.93613977D-02  0.91996210D-04 -0.28584536D-04
  0.30875272D-04 -0.22752973D-05 -0.38593349D-05 -0.43937163D-05 -0.11267432D-03
  0.91070071D-04  0.15447208D-03  0.17586100D-03 -0.34215957D-03 -0.21875620D-04
 -0.37105192D-04 -0.42242949D-04 -0.10205210D-03  0.14119716D-05  0.23949711D-05
  0.27265900D-05  0.26486124D-04 -0.61171277D-05 -0.10375806D-04 -0.11812489D-04
 -0.35536835D-04  0.69997977D-06  0.11872982D-05  0.13516970D-05  0.19029657D-05
 -0.18054872D-05 -0.33307713D-05 -0.53768976D-05 -0.69991231D-05 -0.59723644D-05
 -0.20621139D-05  0.94710923D-05  0.43652178D-05 -0.12240526D-04  0.58210331D-05
  0.44631990D-05  0.22274491D-05  0.15837754D-04  0.12143385D-04  0.60604003D-05
 -0.32306031D-05 -0.24770216D-05 -0.12362074D-05  0.41324986D-04  0.39235224D-05
  0.19544488D-04  0.17175528D-04 -0.12851560D-04  0.39237323D-04 -0.95579498D-05
 -0.32006471D-04 -0.10666314D-04  0.42832188D-04 -0.21345364D-05 -0.39378028D-05
 -0.63568346D-05 -0.82747099D-05 -0.70608250D-05 -0.24379332D-05 -0.36351758D-06
 -0.16754492D-06  0.46981345D-06  0.40369570D-04  0.30952826D-04  0.15447629D-04
 -0.10446801D-04 -0.80099448D-05 -0.39975238D-05  0.12130924D-04  0.93012235D-05
  0.46419624D-05  0.10627166D-05 -0.33291694D-04  0.21112787D-04 -0.44695156D-05
 -0.12881875D-04 -0.23170329D-04 -0.17571413D-04  0.14233180D-05 -0.87972113D-05
  0.19265948D-05 -0.17206957D-05 -0.31743476D-05 -0.51243813D-05 -0.66704218D-05
 -0.56918830D-05 -0.19652704D-05  0.89703328D-05  0.41344182D-05 -0.11593340D-04
 -0.11989034D-04 -0.91924307D-05 -0.45876672D-05  0.10967118D-05  0.84088906D-06
  0.41966258D-06 -0.41597308D-05 -0.31894177D-05 -0.15917430D-05  0.48044405D-04
  0.12799234D-04  0.17739579D-04  0.23127061D-04 -0.91624119D-06  0.58922073D-05
 -0.25856933D-06 -0.74663631D-05  0.90188737D-05  0.97831613D-05  0.51575191D-06
  0.95146157D-06  0.15359540D-05  0.19993557D-05  0.17060538D-05  0.58905940D-06
 -0.31198027D-05 -0.14379142D-05  0.40320615D-05  0.80909389D-05  0.62036188D-05
  0.30960405D-05 -0.46562610D-05 -0.35701256D-05 -0.17817429D-05  0.30223904D-05
  0.23173773D-05  0.11565337D-05 -0.35548343D-04  0.71353605D-05 -0.12793112D-04
 -0.16683572D-05 -0.14757066D-05 -0.18866116D-05 -0.11024887D-05  0.49187781D-05
 -0.25391074D-05  0.23664395D-05 -0.93392235D-06 -0.17229044D-05 -0.27813019D-05
 -0.36204286D-05 -0.30893183D-05 -0.10666674D-05  0.33083113D-05  0.15247977D-05
 -0.42756918D-05  0.48998687D-05  0.37569086D-05  0.18749607D-05 -0.57692784D-05
 -0.44235167D-05 -0.22076449D-05  0.90002754D-07  0.69008403D-07  0.34440030D-07
  0.83757254D-05 -0.72946835D-05 -0.36695378D-06 -0.88409464D-05 -0.26696803D-05
 -0.16452136D-05 -0.14076065D-05 -0.24232994D-05  0.31665864D-05  0.32218647D-05
 -0.29756662D-06 -0.54895231D-06 -0.88617923D-06 -0.11535420D-05 -0.98431952D-06
 -0.33986188D-06 -0.17728752D-06 -0.81711655D-07  0.22912801D-06  0.37502238D-06
  0.28754338D-06  0.14350430D-06  0.39426350D-05  0.30229625D-05  0.15086701D-05
  0.44034324D-05  0.33762726D-05  0.16849967D-05 -0.16918794D-04  0.69566107D-05
 -0.11269516D-04 -0.16231192D-05 -0.14725847D-05 -0.38326232D-05 -0.15464639D-05
  0.87594503D-06  0.54496189D-05  0.81712557D-06 -0.28479651D-04 -0.52417761D-04
 -0.84821832D-04 -0.11150067D-03 -0.95633479D-04 -0.32698711D-04  0.64746723D-04
  0.28889862D-04 -0.85312149D-04  0.16808705D-03  0.12950201D-03  0.56858359D-04
 -0.28039041D-04 -0.21602570D-04 -0.94846917D-05 -0.85043873D-05 -0.65521720D-05
 -0.28767564D-05  0.99497286D-04 -0.10626584D-03  0.27931245D-04 -0.60852850D-05
 -0.25621273D-04 -0.12453307D-03 -0.10035388D-03  0.39190329D-04  0.45994964D-04
 -0.95108223D-05 -0.36039498D-05 -0.61129810D-05 -0.69594128D-05  0.40793068D-05
  0.17664446D-05  0.29962244D-05  0.34110955D-05 -0.18057314D-04  0.16677662D-05
  0.28288472D-05  0.32205426D-05  0.13421113D-04 -0.20717991D-06 -0.35141635D-06
 -0.40007509D-06 -0.32902881D-05  0.94349166D-06  0.16003404D-05  0.18219310D-05
  0.42725981D-05  0.15195965D-05  0.25775232D-05  0.29344191D-05  0.39969026D-05
MO    3     MO 0.0        OCC NO =    2.0000000  ORB. ENERGY =  -10.260916
  0.32248951D-04  0.59493018D-04  0.96040177D-04  0.12501577D-03  0.10667619D-03
  0.36832724D-04 -0.48521280D-04 -0.22363414D-04  0.62709347D-04 -0.37964559D-05
 -0.29108816D-05 -0.14527339D-05  0.67158858D-05  0.51493153D-05  0.25698692D-05
 -0.46925154D-04 -0.35979231D-04 -0.17956158D-04 -0.29577356D-03  0.38928025D-04
  0.15446673D-03 -0.48250725D-04  0.25811285D-04  0.55117505D-05  0.37162402D-04
  0.56280701D-05 -0.34559751D-04  0.42280718D-04  0.12102570D-04  0.22326879D-04
  0.36042505D-04  0.46916633D-04  0.40034048D-04  0.13822795D-04 -0.16551307D-05
 -0.76284824D-06  0.21391061D-05  0.98959334D-04  0.75875740D-04  0.37867312D-04
  0.82800329D-05  0.63486041D-05  0.31683984D-05  0.11718354D-03  0.89848909D-04
  0.44840902D-04  0.30337035D-04 -0.20954171D-03  0.33446725D-04 -0.17826108D-03
  0.45182131D-04  0.42654105D-04  0.70298215D-04 -0.38379689D-04  0.55180972D-04
 -0.33442654D-04  0.14595747D-05  0.26926304D-05  0.43467403D-05  0.56581644D-05
  0.48281219D-05  0.16670345D-05 -0.83561860D-05 -0.38513585D-05  0.10799611D-04
 -0.10026234D-04 -0.76874803D-05 -0.38365914D-05 -0.70931877D-05 -0.54386065D-05
 -0.27142458D-05 -0.17563803D-04 -0.13466810D-04 -0.67208820D-05 -0.87968568D-04
  0.90353096D-04 -0.30957031D-04  0.89480032D-04  0.82770105D-05 -0.59159526D-05
 -0.12393185D-04  0.14570574D-04  0.31737280D-05  0.40115576D-04 -0.14224241D-05
 -0.26240947D-05 -0.42361024D-05 -0.55141467D-05 -0.47052313D-05 -0.16246033D-05
  0.80435869D-05  0.37072819D-05 -0.10395605D-04  0.13230439D-04  0.10144261D-04
  0.50626973D-05  0.17155052D-04  0.13153405D-04  0.65644712D-05  0.29149730D-05
  0.22350164D-05  0.11154298D-05  0.14387244D-03  0.44621332D-04  0.31416573D-04
  0.21248397D-05  0.78747333D-05  0.46218300D-06 -0.31378151D-06  0.30520626D-05
  0.12936634D-05 -0.32492235D-05  0.37079670D-05  0.68404750D-05  0.11042648D-04
  0.14374246D-04  0.12265570D-04  0.42350067D-05 -0.12093766D-04 -0.55740056D-05
  0.15630094D-04  0.42442376D-05  0.32542122D-05  0.16240799D-05 -0.10162721D-04
 -0.77921298D-05 -0.38888189D-05  0.49177673D-05  0.37706321D-05  0.18818097D-05
 -0.10612149D-03 -0.51533812D-04 -0.19135711D-04 -0.15507821D-04  0.23248563D-05
 -0.17037800D-05  0.70987700D-05 -0.81244846D-05 -0.12219113D-05  0.10690348D-04
 -0.42323640D-05 -0.78078851D-05 -0.12604347D-04 -0.16407115D-04 -0.14000221D-04
 -0.48339399D-05  0.16262235D-04  0.74952491D-05 -0.21017461D-04  0.19812188D-04
  0.15190729D-04  0.75812386D-05  0.54771739D-05  0.41995496D-05  0.20958696D-05
  0.11078487D-04  0.84942809D-05  0.42392415D-05  0.15746747D-03  0.32014254D-04
 -0.59552494D-04  0.48072874D-04  0.69658305D-05 -0.48324980D-05 -0.76505655D-05