 Entering Gaussian System, Link 0=g09
 Initial command:
 /opt/g09/l1.exe "/opt/g09/scratch/Gau-31960.inp" -scrdir="/opt/g09/scratch/"
 Entering Link 1 = /opt/g09/l1.exe PID=     31962.
  
 Copyright (c) 1988,1990,1992,1993,1995,1998,2003,2009,2013,
            Gaussian, Inc.  All Rights Reserved.
  
 This is part of the Gaussian(R) 09 program.  It is based on
 the Gaussian(R) 03 system (copyright 2003, Gaussian, Inc.),
 the Gaussian(R) 98 system (copyright 1998, Gaussian, Inc.),
 the Gaussian(R) 94 system (copyright 1995, Gaussian, Inc.),
 the Gaussian 92(TM) system (copyright 1992, Gaussian, Inc.),
 the Gaussian 90(TM) system (copyright 1990, Gaussian, Inc.),
 the Gaussian 88(TM) system (copyright 1988, Gaussian, Inc.),
 the Gaussian 86(TM) system (copyright 1986, Carnegie Mellon
 University), and the Gaussian 82(TM) system (copyright 1983,
 Carnegie Mellon University). Gaussian is a federally registered
 trademark of Gaussian, Inc.
  
 This software contains proprietary and confidential information,
 including trade secrets, belonging to Gaussian, Inc.
  
 This software is provided under written license and may be
 used, copied, transmitted, or stored only in accord with that
 written license.
  
 The following legend is applicable only to US Government
 contracts under FAR:
  
                    RESTRICTED RIGHTS LEGEND
  
 Use, reproduction and disclosure by the US Government is
 subject to restrictions as set forth in subparagraphs (a)
 and (c) of the Commercial Computer Software - Restricted
 Rights clause in FAR 52.227-19.
  
 Gaussian, Inc.
 340 Quinnipiac St., Bldg. 40, Wallingford CT 06492
  
  
 ---------------------------------------------------------------
 Warning -- This program may not be used in any manner that
 competes with the business of Gaussian, Inc. or will provide
 assistance to any competitor of Gaussian, Inc.  The licensee
 of this program is prohibited from giving any competitor of
 Gaussian, Inc. access to this program.  By using this program,
 the user acknowledges that Gaussian, Inc. is engaged in the
 business of creating and licensing software in the field of
 computational chemistry and represents and warrants to the
 licensee that it is not a competitor of Gaussian, Inc. and that
 it will not use this program in any manner prohibited above.
 ---------------------------------------------------------------
  

 Cite this work as:
 Gaussian 09, Revision D.01,
 M. J. Frisch, G. W. Trucks, H. B. Schlegel, G. E. Scuseria, 
 M. A. Robb, J. R. Cheeseman, G. Scalmani, V. Barone, B. Mennucci, 
 G. A. Petersson, H. Nakatsuji, M. Caricato, X. Li, H. P. Hratchian, 
 A. F. Izmaylov, J. Bloino, G. Zheng, J. L. Sonnenberg, M. Hada, 
 M. Ehara, K. Toyota, R. Fukuda, J. Hasegawa, M. Ishida, T. Nakajima, 
 Y. Honda, O. Kitao, H. Nakai, T. Vreven, J. A. Montgomery, Jr., 
 J. E. Peralta, F. Ogliaro, M. Bearpark, J. J. Heyd, E. Brothers, 
 K. N. Kudin, V. N. Staroverov, T. Keith, R. Kobayashi, J. Normand, 
 K. Raghavachari, A. Rendell, J. C. Burant, S. S. Iyengar, J. Tomasi, 
 M. Cossi, N. Rega, J. M. Millam, M. Klene, J. E. Knox, J. B. Cross, 
 V. Bakken, C. Adamo, J. Jaramillo, R. Gomperts, R. E. Stratmann, 
 O. Yazyev, A. J. Austin, R. Cammi, C. Pomelli, J. W. Ochterski, 
 R. L. Martin, K. Morokuma, V. G. Zakrzewski, G. A. Voth, 
 P. Salvador, J. J. Dannenberg, S. Dapprich, A. D. Daniels, 
 O. Farkas, J. B. Foresman, J. V. Ortiz, J. Cioslowski, 
 and D. J. Fox, Gaussian, Inc., Wallingford CT, 2013.
 
 ******************************************
 Gaussian 09:  EM64L-G09RevD.01 24-Apr-2013
                 4-Jan-2020 
 ******************************************
 --------------------------------------------------------
 # nosymmetry b3lyp def2svp int=grid=ultrafine output=wfn
 --------------------------------------------------------
 1/38=1/1;
 2/12=2,15=1,17=6,18=5,40=1/2;
 3/5=43,7=101,11=2,16=1,25=1,30=1,74=-5,75=-5/1,2,3;
 4//1;
 5/5=2,38=5/2;
 6/7=2,8=2,9=2,10=2,28=1/1;
 99/5=1,6=100,9=1/99;
 ------
 ethene
 ------
 Symbolic Z-matrix:
 Charge =  0 Multiplicity = 1
 C                     0.65578  -0.11679   3.53075 
 H                     1.04724  -1.12391   3.52628 
 H                     1.37085   0.69327   3.52625 
 C                    -0.65578   0.11679   3.53076 
 H                    -1.37085  -0.69327   3.52626 
 H                    -1.04724   1.12391   3.5263 
 
                          Input orientation:                          
 ---------------------------------------------------------------------
 Center     Atomic      Atomic             Coordinates (Angstroms)
 Number     Number       Type             X           Y           Z
 ---------------------------------------------------------------------
      1          6           0        0.655781   -0.116790    3.530752
      2          1           0        1.047241   -1.123909    3.526283
      3          1           0        1.370854    0.693273    3.526250
      4          6           0       -0.655776    0.116792    3.530761
      5          1           0       -1.370848   -0.693272    3.526265
      6          1           0       -1.047239    1.123911    3.526302
 ---------------------------------------------------------------------
                    Distance matrix (angstroms):
                    1          2          3          4          5
     1  C    0.000000
     2  H    1.080532   0.000000
     3  H    1.080534   1.845773   0.000000
     4  C    1.332194   2.107042   2.107031   0.000000
     5  H    2.107030   2.456136   3.072367   1.080533   0.000000
     6  H    2.107044   3.072384   2.456140   1.080533   1.845773
                    6
     6  H    0.000000
 Symmetry turned off by external request.
 Stoichiometry    C2H4
 Framework group  C1[X(C2H4)]
 Deg. of freedom    12
 Full point group                 C1      NOp   1
 Rotational constants (GHZ):    147.1860477     30.2109533     25.0661587
 Standard basis: def2SVP (5D, 7F)
    48 basis functions,    78 primitive gaussians,    50 cartesian basis functions
     8 alpha electrons        8 beta electrons
       nuclear repulsion energy        33.4300030595 Hartrees.
 NAtoms=    6 NActive=    6 NUniq=    6 SFac= 1.00D+00 NAtFMM=   60 NAOKFM=F Big=F
 Integral buffers will be    131072 words long.
 Raffenetti 2 integral format.
 Two-electron integral symmetry is turned off.
 One-electron integrals computed using PRISM.
   1 Symmetry operations used in ECPInt.
 ECPInt:  NShTT=     300 NPrTT=    1028 LenC2=     301 LenP2D=     975.
 LDataN:  DoStor=T MaxTD1= 4 Len=   56
 NBasis=    48 RedAO= T EigKep=  3.94D-03  NBF=    48
 NBsUse=    48 1.00D-06 EigRej= -1.00D+00 NBFU=    48
 ExpMin= 1.22D-01 ExpMax= 1.24D+03 ExpMxC= 1.86D+02 IAcc=3 IRadAn=         5 AccDes= 0.00D+00
 Harris functional with IExCor=  402 and IRadAn=       5 diagonalized for initial guess.
 HarFok:  IExCor=  402 AccDes= 0.00D+00 IRadAn=         5 IDoV= 1 UseB2=F ITyADJ=14
 ICtDFT=  3500011 ScaDFX=  1.000000  1.000000  1.000000  1.000000
 FoFCou: FMM=F IPFlag=           0 FMFlag=      100000 FMFlg1=           0
         NFxFlg=           0 DoJE=T BraDBF=F KetDBF=T FulRan=T
         wScrn=  0.000000 ICntrl=     500 IOpCl=  0 I1Cent=   200000004 NGrid=           0
         NMat0=    1 NMatS0=      1 NMatT0=    0 NMatD0=    1 NMtDS0=    0 NMtDT0=    0
 Symmetry not used in FoFCou.
 Keep R1 ints in memory in canonical form, NReq=1590328.
 Requested convergence on RMS density matrix=1.00D-08 within 128 cycles.
 Requested convergence on MAX density matrix=1.00D-06.
 Requested convergence on             energy=1.00D-06.
 No special actions if energy rises.
 Integral accuracy reduced to 1.0D-05 until final iterations.
 Initial convergence to 1.0D-05 achieved.  Increase integral accuracy.
 SCF Done:  E(RB3LYP) =  -78.5310347558     A.U. after    9 cycles
            NFock=  9  Conv=0.48D-08     -V/T= 2.0126

 **********************************************************************

            Population analysis using the SCF density.

 **********************************************************************

 Alpha  occ. eigenvalues --  -10.18740 -10.18670  -0.75332  -0.57524  -0.47113
 Alpha  occ. eigenvalues --   -0.42108  -0.35834  -0.27581
 Alpha virt. eigenvalues --    0.00571   0.08437   0.10542   0.11763   0.18610
 Alpha virt. eigenvalues --    0.32443   0.39681   0.43575   0.43881   0.48831
 Alpha virt. eigenvalues --    0.54932   0.57465   0.65338   0.67518   0.67982
 Alpha virt. eigenvalues --    0.69385   0.81021   1.05099   1.17382   1.23572
 Alpha virt. eigenvalues --    1.27174   1.57367   1.62888   1.63420   1.70402
 Alpha virt. eigenvalues --    1.74723   1.77883   1.82182   1.92057   2.07787
 Alpha virt. eigenvalues --    2.16517   2.24926   2.38531   2.39664   2.47733
 Alpha virt. eigenvalues --    2.71392   2.79468   2.81789   3.08348   3.33254
          Condensed to atoms (all electrons):
               1          2          3          4          5          6
     1  C    4.585469   0.390737   0.390737   0.725486  -0.021790  -0.021790
     2  H    0.390737   0.670064  -0.053496  -0.021790  -0.019917   0.009976
     3  H    0.390737  -0.053496   0.670065  -0.021790   0.009977  -0.019917
     4  C    0.725486  -0.021790  -0.021790   4.585469   0.390737   0.390738
     5  H   -0.021790  -0.019917   0.009977   0.390737   0.670066  -0.053496
     6  H   -0.021790   0.009976  -0.019917   0.390738  -0.053496   0.670064
 Mulliken charges:
               1
     1  C   -0.048849
     2  H    0.024425
     3  H    0.024425
     4  C   -0.048850
     5  H    0.024424
     6  H    0.024425
 Sum of Mulliken charges =   0.00000
 Mulliken charges with hydrogens summed into heavy atoms:
               1
     1  C    0.000000
     4  C    0.000000
 Electronic spatial extent (au):  <R**2>=            794.1757
 Charge=              0.0000 electrons
 Dipole moment (field-independent basis, Debye):
    X=              0.0000    Y=              0.0000    Z=             -0.0117  Tot=              0.0117
 Quadrupole moment (field-independent basis, Debye-Ang):
   XX=            -12.3400   YY=            -12.3371   ZZ=            -15.1644
   XY=              0.0005   XZ=              0.0000   YZ=              0.0000
 Traceless Quadrupole moment (field-independent basis, Debye-Ang):
   XX=              0.9405   YY=              0.9434   ZZ=             -1.8839
   XY=              0.0005   XZ=              0.0000   YZ=              0.0000
 Octapole moment (field-independent basis, Debye-Ang**2):
  XXX=             -0.0001  YYY=              0.0000  ZZZ=           -160.1573  XYY=              0.0000
  XXY=              0.0000  XXZ=            -43.5814  XZZ=             -0.0002  YZZ=              0.0000
  YYZ=            -43.5620  XYZ=              0.0033
 Hexadecapole moment (field-independent basis, Debye-Ang**3):
 XXXX=            -66.2627 YYYY=            -27.8216 ZZZZ=          -1146.0464 XXXY=              4.5054
 XXXZ=             -0.0001 YYYX=              2.5649 YYYZ=             -0.0001 ZZZX=             -0.0009
 ZZZY=              0.0000 XXYY=            -14.1601 XXZZ=           -168.4201 YYZZ=           -161.8044
 XXYZ=              0.0000 YYXZ=             -0.0001 ZZXY=              1.2156
 N-N= 3.343000305949D+01 E-N=-2.478669554666D+02  KE= 7.755626977896D+01
 1\1\GINC-TANATOS\SP\RB3LYP\def2SVP\C2H4\RUBEN\04-Jan-2020\0\\# nosymme
 try b3lyp def2svp int=grid=ultrafine output=wfn\\ethene\\0,1\C,0,0.655
 780599,-0.116790479,3.530751741\H,0,1.047241375,-1.123909307,3.5262834
 75\H,0,1.370854383,0.693273495,3.526250153\C,0,-0.65577592,0.116792152
 ,3.530760632\H,0,-1.370847867,-0.693272366,3.526264544\H,0,-1.04723902
 9,1.12391105,3.526302434\\Version=EM64L-G09RevD.01\HF=-78.5310348\RMSD
 =4.795e-09\Dipole=0.,-0.0000003,-0.0046038\Quadrupole=0.6992339,0.7014
 039,-1.4006378,0.000363,-0.0000136,0.000003\PG=C01 [X(C2H4)]\\@

 Writing a WFN file to "ethene.wfn"


 THE CAUTIOUS SELDOM ERR...CONFUCIUS                   
 Job cpu time:       0 days  0 hours  0 minutes  6.1 seconds.
 File lengths (MBytes):  RWF=      5 Int=      0 D2E=      0 Chk=      1 Scr=      1
 Normal termination of Gaussian 09 at Sat Jan  4 17:09:36 2020.
