 ethene
GAUSSIAN              8 MOL ORBITALS     78 PRIMITIVES        6 NUCLEI
  C    1    (CENTRE  1)   1.23924574 -0.22070202  6.67215383  CHARGE =  6.0
  H    2    (CENTRE  2)   1.97899939 -2.12388079  6.66371003  CHARGE =  1.0
  H    3    (CENTRE  3)   2.59053935  1.31009704  6.66364707  CHARGE =  1.0
  C    4    (CENTRE  4)  -1.23923689  0.22070518  6.67217064  CHARGE =  6.0
  H    5    (CENTRE  5)  -2.59052704 -1.31009491  6.66367426  CHARGE =  1.0
  H    6    (CENTRE  6)  -1.97899496  2.12388408  6.66374586  CHARGE =  1.0
CENTRE ASSIGNMENTS    1  1  1  1  1  1  1  1  1  1  1  1  1  1  1  1  1  1  1  1
CENTRE ASSIGNMENTS    1  1  1  1  1  2  2  2  2  2  2  2  3  3  3  3  3  3  3  4
CENTRE ASSIGNMENTS    4  4  4  4  4  4  4  4  4  4  4  4  4  4  4  4  4  4  4  4
CENTRE ASSIGNMENTS    4  4  4  4  5  5  5  5  5  5  5  6  6  6  6  6  6  6
TYPE ASSIGNMENTS      1  1  1  1  1  1  1  2  2  2  3  3  3  4  4  4  2  3  4  5
TYPE ASSIGNMENTS      6  7  8  9 10  1  1  1  1  2  3  4  1  1  1  1  2  3  4  1
TYPE ASSIGNMENTS      1  1  1  1  1  1  2  2  2  3  3  3  4  4  4  2  3  4  5  6
TYPE ASSIGNMENTS      7  8  9 10  1  1  1  1  2  3  4  1  1  1  1  2  3  4
EXPONENTS  0.1238402D+04 0.1862900D+03 0.4225118D+02 0.1167656D+02 0.3593051D+01
EXPONENTS  0.4024515D+00 0.1309018D+00 0.9468097D+01 0.2010355D+01 0.5477100D+00
EXPONENTS  0.9468097D+01 0.2010355D+01 0.5477100D+00 0.9468097D+01 0.2010355D+01
EXPONENTS  0.5477100D+00 0.1526861D+00 0.1526861D+00 0.1526861D+00 0.8000000D+00
EXPONENTS  0.8000000D+00 0.8000000D+00 0.8000000D+00 0.8000000D+00 0.8000000D+00
EXPONENTS  0.1301070D+02 0.1962257D+01 0.4445380D+00 0.1219496D+00 0.8000000D+00
EXPONENTS  0.8000000D+00 0.8000000D+00 0.1301070D+02 0.1962257D+01 0.4445380D+00
EXPONENTS  0.1219496D+00 0.8000000D+00 0.8000000D+00 0.8000000D+00 0.1238402D+04
EXPONENTS  0.1862900D+03 0.4225118D+02 0.1167656D+02 0.3593051D+01 0.4024515D+00
EXPONENTS  0.1309018D+00 0.9468097D+01 0.2010355D+01 0.5477100D+00 0.9468097D+01
EXPONENTS  0.2010355D+01 0.5477100D+00 0.9468097D+01 0.2010355D+01 0.5477100D+00
EXPONENTS  0.1526861D+00 0.1526861D+00 0.1526861D+00 0.8000000D+00 0.8000000D+00
EXPONENTS  0.8000000D+00 0.8000000D+00 0.8000000D+00 0.8000000D+00 0.1301070D+02
EXPONENTS  0.1962257D+01 0.4445380D+00 0.1219496D+00 0.8000000D+00 0.8000000D+00
EXPONENTS  0.8000000D+00 0.1301070D+02 0.1962257D+01 0.4445380D+00 0.1219496D+00
EXPONENTS  0.8000000D+00 0.8000000D+00 0.8000000D+00
MO    1     MO 0.0        OCC NO =    2.0000000  ORB. ENERGY =  -10.187397
  0.57388380D+00  0.10323147D+01  0.15048799D+01  0.14738120D+01  0.57961940D+00
  0.10987023D-01 -0.24923149D-02  0.33584898D-02  0.26628406D-02  0.12739894D-02
 -0.59812706D-03 -0.47423608D-03 -0.22688993D-03 -0.20180979D-04 -0.16000862D-04
 -0.76553316D-05 -0.70010446D-04  0.12448220D-04  0.19920716D-05  0.14665099D-03
  0.11401633D-02 -0.12868143D-02  0.36536189D-03 -0.15008417D-04  0.25623384D-05
 -0.48108044D-03 -0.81612389D-03 -0.92911410D-03  0.69450719D-03  0.23412530D-03
 -0.18304067D-02 -0.10402590D-04 -0.48106378D-03 -0.81609562D-03 -0.92908192D-03
  0.69452732D-03  0.85160582D-03  0.16370274D-02 -0.10465055D-04  0.57389898D+00
  0.10323420D+01  0.15049197D+01  0.14738510D+01  0.57963473D+00  0.10987383D-01
 -0.24924509D-02 -0.33584382D-02 -0.26627997D-02 -0.12739698D-02  0.59810875D-03
  0.47422156D-03  0.22688298D-03 -0.20134847D-04 -0.15964285D-04 -0.76378320D-05
  0.70000492D-04 -0.12444459D-04  0.19910471D-05  0.14670636D-03  0.11401936D-02
 -0.12868999D-02  0.36534691D-03  0.14973007D-04 -0.25436328D-05 -0.48107928D-03
 -0.81612193D-03 -0.92911187D-03  0.69455200D-03 -0.85165185D-03 -0.16370781D-02
 -0.10461766D-04 -0.48109557D-03 -0.81614956D-03 -0.92914332D-03  0.69452825D-03
 -0.23416141D-03  0.18304768D-02 -0.10390615D-04
MO    2     MO 0.0        OCC NO =    2.0000000  ORB. ENERGY =  -10.186699
  0.57331703D+00  0.10312951D+01  0.15033937D+01  0.14723565D+01  0.57904696D+00
  0.13580327D-01 -0.51479084D-02 -0.20262492D-02 -0.16065491D-02 -0.76862523D-03
  0.36086462D-03  0.28611817D-03  0.13688822D-03 -0.24620408D-04 -0.19520745D-04
 -0.93393579D-05  0.38802673D-03 -0.69105391D-04  0.38104820D-05  0.20870979D-02
  0.11325737D-02 -0.32196716D-02 -0.35119341D-03 -0.27035916D-04  0.46860481D-05
 -0.57872747D-03 -0.98177617D-03 -0.11177005D-02  0.87030904D-03  0.11601355D-02
 -0.25169620D-02 -0.14972519D-04 -0.57872101D-03 -0.98176521D-03 -0.11176880D-02
  0.87029443D-03  0.19577352D-02  0.19617001D-02 -0.15055314D-04 -0.57330184D+00
 -0.10312678D+01 -0.15033538D+01 -0.14723174D+01 -0.57903162D+00 -0.13580036D-01
  0.51478424D-02 -0.20263342D-02 -0.16066164D-02 -0.76865745D-03  0.36089620D-03
  0.28614321D-03  0.13690020D-03  0.24645381D-04  0.19540545D-04  0.93488308D-05
  0.38802854D-03 -0.69105071D-04 -0.38155192D-05 -0.20870932D-02 -0.11325445D-02
  0.32196378D-02  0.35121466D-03 -0.26897828D-04  0.46396123D-05  0.57870975D-03
  0.98174612D-03  0.11176663D-02 -0.87027700D-03  0.19577094D-02  0.19616569D-02
  0.15038644D-04  0.57871309D-03  0.98175178D-03  0.11176727D-02 -0.87028971D-03
  0.11601328D-02 -0.25169142D-02  0.14944589D-04
MO    3     MO 0.0        OCC NO =    2.0000000  ORB. ENERGY =   -0.753324
 -0.16674509D+00 -0.29994469D+00 -0.43725112D+00 -0.42822417D+00 -0.16841160D+00
  0.13947535D+00  0.16405755D-01 -0.14910323D+00 -0.11821925D+00 -0.56559924D-01
  0.26554795D-01  0.21054459D-01  0.10073137D-01 -0.38473210D-03 -0.30504194D-03
 -0.14594197D-03 -0.28127594D-02  0.50088604D-03 -0.15412309D-05  0.14359655D-01
 -0.57590467D-02 -0.86006081D-02 -0.74007953D-02  0.94689625D-05 -0.17196847D-05
  0.17860542D-01  0.30299330D-01  0.34494193D-01  0.22688527D-02 -0.79254342D-02
  0.15575016D-01  0.54394084D-04  0.17860596D-01  0.30299422D-01  0.34494298D-01
  0.22688929D-02 -0.12815048D-01 -0.11881423D-01  0.54886484D-04 -0.16674509D+00
 -0.29994470D+00 -0.43725112D+00 -0.42822418D+00 -0.16841160D+00  0.13947535D+00
  0.16405759D-01  0.14910313D+00  0.11821917D+00  0.56559889D-01 -0.26555262D-01
 -0.21054830D-01 -0.10073314D-01 -0.38673487D-03 -0.30662988D-03 -0.14670169D-03
  0.28127619D-02 -0.50088215D-03 -0.15801296D-05  0.14359648D-01 -0.57590391D-02
 -0.86006086D-02 -0.74008373D-02 -0.10088684D-04  0.18412080D-05  0.17860654D-01
  0.30299520D-01  0.34494409D-01  0.22689039D-02  0.12815081D-01  0.11881470D-01
  0.54777392D-04  0.17860482D-01  0.30299228D-01  0.34494077D-01  0.22688420D-02
  0.79254217D-02 -0.15574957D-01  0.54215382D-04
MO    4     MO 0.0        OCC NO =    2.0000000  ORB. ENERGY =   -0.575242
 -0.12854927D+00 -0.23123722D+00 -0.33709125D+00 -0.33013208D+00 -0.12983403D+00
  0.11412370D+00  0.13140404D-01  0.21910568D+00  0.17372198D+00  0.83114233D-01
 -0.39022049D-01 -0.30939351D-01 -0.14802390D-01 -0.78802404D-03 -0.62479940D-03
 -0.29892431D-03  0.85383567D-02 -0.15206492D-02  0.32430132D-06 -0.86679147D-02
  0.94480514D-02 -0.78013676D-03  0.66637214D-02 -0.12139458D-03  0.21159268D-04
  0.31368130D-01  0.53214138D-01  0.60581495D-01  0.67720102D-02 -0.25119022D-02
  0.17882083D-01  0.55097918D-04  0.31367637D-01  0.53213301D-01  0.60580543D-01
  0.67719156D-02 -0.85305629D-02 -0.15915425D-01  0.55694934D-04  0.12854926D+00
  0.23123721D+00  0.33709124D+00  0.33013208D+00  0.12983403D+00 -0.11412370D+00
 -0.13140403D-01  0.21910588D+00  0.17372214D+00  0.83114308D-01 -0.39021532D-01
 -0.30938941D-01 -0.14802194D-01  0.78497188D-03  0.62237944D-03  0.29776653D-03
  0.85383524D-02 -0.15206800D-02 -0.44165970D-06  0.86679022D-02 -0.94480408D-02
  0.78013863D-03 -0.66637749D-02 -0.12162573D-03  0.21145493D-04 -0.31367682D-01
 -0.53213377D-01 -0.60580630D-01 -0.67719411D-02 -0.85305413D-02 -0.15915451D-01
 -0.55659458D-04 -0.31368095D-01 -0.53214077D-01 -0.60581426D-01 -0.67719878D-02
 -0.25119348D-02  0.17882071D-01 -0.54977078D-04
MO    5     MO 0.0        OCC NO =    2.0000000  ORB. ENERGY =   -0.471135
 -0.30303509D-06 -0.54510611D-06 -0.79464067D-06 -0.77823551D-06 -0.30606373D-06
  0.34444953D-06 -0.41958819D-06  0.77481640D-01  0.61432748D-01  0.29391420D-01
  0.43506350D+00  0.34494813D+00  0.16503438D+00 -0.38915932D-05 -0.30855214D-05
 -0.14762136D-05  0.26303024D-02  0.14767934D-01 -0.60176690D-07 -0.28069828D-03
  0.28064625D-03  0.52027999D-07 -0.15244416D-02 -0.39193319D-04 -0.21656431D-03
 -0.33039961D-01 -0.56050296D-01 -0.63810313D-01 -0.94177144D-02  0.87099982D-02
 -0.67431965D-02 -0.64078608D-04  0.33040361D-01  0.56050975D-01  0.63811086D-01
  0.94178541D-02 -0.10502570D-01 -0.33218238D-02  0.64353075D-04  0.62826804D-07
  0.11301422D-06  0.16474902D-06  0.16134782D-06  0.63454717D-07 -0.10692021D-06
  0.50941557D-06  0.77481958D-01  0.61433000D-01  0.29391541D-01  0.43506337D+00
  0.34494802D+00  0.16503433D+00  0.49910086D-05  0.39572133D-05  0.18932593D-05
  0.26303031D-02  0.14767938D-01  0.97435144D-07  0.28077038D-03 -0.28073625D-03
 -0.34131804D-07  0.15243849D-02 -0.39190533D-04 -0.21657388D-03 -0.33040371D-01
 -0.56050992D-01 -0.63811105D-01 -0.94178561D-02 -0.10502558D-01 -0.33218277D-02
 -0.64231078D-04  0.33039930D-01  0.56050245D-01  0.63810255D-01  0.94177013D-02
  0.87100101D-02 -0.67431913D-02  0.63931468D-04
MO    6     MO 0.0        OCC NO =    2.0000000  ORB. ENERGY =   -0.421078
  0.12454161D-01  0.22402816D-01  0.32658208D-01  0.31983988D-01  0.12578632D-01
 -0.12738055D-01  0.74809100D-03  0.55170739D+00  0.43743138D+00  0.20928137D+00
 -0.98267784D-01 -0.77913425D-01 -0.37276312D-01 -0.23027673D-02 -0.18257916D-02
 -0.87351794D-03  0.17652126D-01 -0.31436233D-02 -0.88519653D-04 -0.11832524D-01
  0.13963705D-01 -0.21311805D-02  0.94875954D-02  0.19477905D-04 -0.39507713D-05
  0.27105924D-01  0.45983563D-01  0.52349866D-01  0.99734881D-02  0.73730374D-02
  0.86650537D-02 -0.59087429D-05  0.27102918D-01  0.45978462D-01  0.52344059D-01
  0.99720045D-02  0.39291964D-02 -0.10677463D-01 -0.55710633D-05  0.12454191D-01
  0.22402869D-01  0.32658286D-01  0.31984064D-01  0.12578662D-01 -0.12738082D-01
  0.74808383D-03 -0.55170743D+00 -0.43743142D+00 -0.20928139D+00  0.98267528D-01
  0.77913222D-01  0.37276214D-01 -0.22952196D-02 -0.18198072D-02 -0.87065485D-03
 -0.17652124D-01  0.31436210D-02 -0.88278415D-04 -0.11832519D-01  0.13963701D-01
 -0.21311813D-02  0.94875821D-02 -0.19198249D-04  0.39867225D-05  0.27102866D-01
  0.45978373D-01  0.52343959D-01  0.99719875D-02 -0.39292468D-02  0.10677439D-01
 -0.54715505D-05  0.27105969D-01  0.45983638D-01  0.52349952D-01  0.99735034D-02
 -0.73729950D-02 -0.86650924D-02 -0.58574957D-05
MO    7     MO 0.0        OCC NO =    2.0000000  ORB. ENERGY =   -0.358338
  0.10362849D-05  0.18640919D-05  0.27174218D-05  0.26613213D-05  0.10466419D-05
 -0.95245816D-06  0.63274301D-07  0.72823961D-01  0.57739821D-01  0.27624605D-01
  0.40880774D+00  0.32413076D+00  0.15507467D+00 -0.24787593D-04 -0.19653301D-04
 -0.94027770D-05  0.12296505D-02  0.68999278D-02 -0.11577019D-05  0.87615577D-02
 -0.87614415D-02 -0.11623047D-06  0.47639856D-01 -0.35688608D-04 -0.20676267D-03
 -0.44022951D-01 -0.74682276D-01 -0.85021841D-01 -0.23794170D-01  0.72188322D-02
 -0.56188538D-02 -0.82374404D-04  0.44024806D-01  0.74685423D-01  0.85025423D-01
  0.23794877D-01 -0.87142294D-02 -0.27821602D-02  0.81818496D-04  0.10540845D-05
  0.18961102D-05  0.27640972D-05  0.27070331D-05  0.10646194D-05 -0.98421723D-06
 -0.11755944D-06 -0.72823604D-01 -0.57739538D-01 -0.27624469D-01 -0.40880789D+00
 -0.32413088D+00 -0.15507473D+00 -0.25817876D-04 -0.20470179D-04 -0.97935981D-05
 -0.12296954D-02 -0.68999256D-02 -0.11750292D-05  0.87614680D-02 -0.87613554D-02
 -0.11258119D-06  0.47639932D-01  0.35690535D-04  0.20605607D-03  0.44024809D-01
  0.74685428D-01  0.85025430D-01  0.23794877D-01  0.87142051D-02  0.27821664D-02
  0.81715862D-04 -0.44022961D-01 -0.74682293D-01 -0.85021860D-01 -0.23794177D-01
 -0.72188687D-02  0.56188548D-02 -0.82250800D-04
MO    8     MO 0.0        OCC NO =    2.0000000  ORB. ENERGY =   -0.275805
 -0.24412985D-03 -0.43914609D-03 -0.64017508D-03 -0.62695882D-03 -0.24656977D-03
  0.24657347D-03  0.17251064D-03  0.28672938D-02  0.22733868D-02  0.10876620D-02
 -0.48869220D-03 -0.38746862D-03 -0.18537757D-03  0.55230313D+00  0.43790373D+00
  0.20950736D+00  0.16019253D-03 -0.27551601D-04  0.37371433D-01 -0.19972758D-04
  0.41555254D-04 -0.21582497D-04  0.25373361D-04 -0.36337280D-01  0.64714964D-02
  0.86640585D-05  0.14698052D-04  0.16732958D-04  0.20030786D-04  0.86465885D-04
 -0.34168050D-04  0.13572171D-01  0.12101123D-04  0.20528825D-04  0.23370987D-04
  0.22293579D-04  0.92785333D-04  0.25046718D-05  0.13572145D-01 -0.24409658D-03
 -0.43908623D-03 -0.64008782D-03 -0.62687336D-03 -0.24653616D-03  0.24654092D-03
  0.17250271D-03 -0.28602169D-02 -0.22677757D-02 -0.10849775D-02  0.48603556D-03
  0.38536226D-03  0.18436982D-03  0.55230318D+00  0.43790377D+00  0.20950738D+00
 -0.15970942D-03  0.27371113D-04  0.37371436D-01 -0.19511149D-04  0.41584574D-04
 -0.22073426D-04  0.25116721D-04  0.36337269D-01 -0.64715447D-02  0.12103846D-04
  0.20533443D-04  0.23376244D-04  0.22294840D-04 -0.92609378D-04 -0.25681145D-05
  0.13572162D-01  0.86667943D-05  0.14702693D-04  0.16738242D-04  0.20032056D-04
 -0.86290515D-04  0.34100242D-04  0.13572156D-01
END DATA
 TOTAL ENERGY =      -78.531034755832 THE VIRIAL(-V/T)=   2.01256849
